q-position: [    0.0000000,    0.0000000,    0.0000000 ]
point_group: 2/m
transformation_matrix:
- [  0.5000000,  0.5000000,  0.0000000 ]
- [  0.5000000, -0.5000000,  0.0000000 ]
- [  0.0000000,  0.0000000, -1.0000000 ]
rotations:
- matrix:
  - [  1,  0,  0 ]
  - [  0,  1,  0 ]
  - [  0,  0,  1 ]
  symbol: E
- matrix:
  - [ -1,  0,  0 ]
  - [  0, -1,  0 ]
  - [  0,  0, -1 ]
  symbol: i
- matrix:
  - [ -1,  0,  0 ]
  - [  0,  1,  0 ]
  - [  0,  0, -1 ]
  symbol: C2
- matrix:
  - [  1,  0,  0 ]
  - [  0, -1,  0 ]
  - [  0,  0,  1 ]
  symbol: sgh
normal_modes:
- band_indices: [ 1 ]
  frequency: -0.0002907910  
  ir_label: Bu
  characters: [ [  1,   0.0 ], [  1, 180.0 ], [  1, 180.0 ], [  1,   0.0 ] ]
- band_indices: [ 2 ]
  frequency: -0.0002097769  
  ir_label: Bu
  characters: [ [  1,   0.0 ], [  1, 180.0 ], [  1, 180.0 ], [  1,   0.0 ] ]
- band_indices: [ 3 ]
  frequency: -0.0001409558  
  ir_label: Au
  characters: [ [  1,   0.0 ], [  1, 180.0 ], [  1,   0.0 ], [  1, 180.0 ] ]
- band_indices: [ 4 ]
  frequency: 2.0454792550   
  ir_label: Bg
  characters: [ [  1,   0.0 ], [  1,   0.0 ], [  1, 180.0 ], [  1, 180.0 ] ]
- band_indices: [ 5 ]
  frequency: 2.4687357739   
  ir_label: Ag
  characters: [ [  1,   0.0 ], [  1,   0.0 ], [  1,   0.0 ], [  1,   0.0 ] ]
- band_indices: [ 6 ]
  frequency: 2.5114764293   
  ir_label: Au
  characters: [ [  1,   0.0 ], [  1, 180.0 ], [  1,   0.0 ], [  1, 180.0 ] ]
- band_indices: [ 7 ]
  frequency: 3.1639279884   
  ir_label: Bu
  characters: [ [  1,   0.0 ], [  1, 180.0 ], [  1, 180.0 ], [  1,   0.0 ] ]
- band_indices: [ 8 ]
  frequency: 4.0420810272   
  ir_label: Bg
  characters: [ [  1,   0.0 ], [  1,   0.0 ], [  1, 180.0 ], [  1, 180.0 ] ]
- band_indices: [ 9 ]
  frequency: 4.6011447039   
  ir_label: Bu
  characters: [ [  1,   0.0 ], [  1, 180.0 ], [  1, 180.0 ], [  1,   0.0 ] ]
- band_indices: [ 10 ]
  frequency: 4.9289877847   
  ir_label: Ag
  characters: [ [  1,   0.0 ], [  1,   0.0 ], [  1,   0.0 ], [  1,   0.0 ] ]
- band_indices: [ 11 ]
  frequency: 4.9537024229   
  ir_label: Bg
  characters: [ [  1,   0.0 ], [  1,   0.0 ], [  1, 180.0 ], [  1, 180.0 ] ]
- band_indices: [ 12 ]
  frequency: 4.9842953960   
  ir_label: Au
  characters: [ [  1,   0.0 ], [  1, 180.0 ], [  1,   0.0 ], [  1, 180.0 ] ]
- band_indices: [ 13 ]
  frequency: 4.9865828580   
  ir_label: Bu
  characters: [ [  1,   0.0 ], [  1, 180.0 ], [  1, 180.0 ], [  1,   0.0 ] ]
- band_indices: [ 14 ]
  frequency: 5.3535370023   
  ir_label: Bg
  characters: [ [  1,   0.0 ], [  1,   0.0 ], [  1, 180.0 ], [  1, 180.0 ] ]
- band_indices: [ 15 ]
  frequency: 5.3877902447   
  ir_label: Au
  characters: [ [  1,   0.0 ], [  1, 180.0 ], [  1,   0.0 ], [  1, 180.0 ] ]
- band_indices: [ 16 ]
  frequency: 5.6578492796   
  ir_label: Ag
  characters: [ [  1,   0.0 ], [  1,   0.0 ], [  1,   0.0 ], [  1,   0.0 ] ]
- band_indices: [ 17 ]
  frequency: 13.3762820498  
  ir_label: Bg
  characters: [ [  1,   0.0 ], [  1,   0.0 ], [  1, 180.0 ], [  1, 180.0 ] ]
- band_indices: [ 18 ]
  frequency: 13.4390065122  
  ir_label: Ag
  characters: [ [  1,   0.0 ], [  1,   0.0 ], [  1,   0.0 ], [  1,   0.0 ] ]
