phonopy:
  version: 2.15.0
  calculator: aims
  frequency_unit_conversion_factor: 15.633302
  symmetry_tolerance: 1.00000e-05
  configuration:
    create_displacements: ".true."
    dim: "2 3 3"
    calculator: "aims"

physical_unit:
  atomic_mass: "AMU"
  length: "angstrom"
  force_constants: "eV/angstrom^2"

space_group:
  type: "P2_1/m"
  number: 11
  Hall_symbol: "-P 2yb"

supercell_matrix:
- [   2,   0,   0 ]
- [   0,   3,   0 ]
- [   0,   0,   3 ]

primitive_cell:
  lattice:
  - [     9.065739490000000,     0.000000000000000,     0.000000000000000 ] # a
  - [     0.000000000000000,     3.599383609999999,     0.000000000000000 ] # b
  - [     0.608141640000000,     0.000000000000000,     5.043450110000000 ] # c
  points:
  - symbol: S  # 1
    coordinates: [  0.554755690000000,  0.250000000000000,  0.238173340000000 ]
    mass: 32.065000
  - symbol: S  # 2
    coordinates: [  0.445244310000000,  0.750000000000000,  0.761826660000000 ]
    mass: 32.065000
  - symbol: S  # 3
    coordinates: [  0.174896830000000,  0.250000000000000,  0.525244940000000 ]
    mass: 32.065000
  - symbol: S  # 4
    coordinates: [  0.825103170000000,  0.750000000000000,  0.474755060000000 ]
    mass: 32.065000
  - symbol: S  # 5
    coordinates: [  0.173953000000000,  0.250000000000000,  0.115918200000000 ]
    mass: 32.065000
  - symbol: S  # 6
    coordinates: [  0.826047000000000,  0.750000000000000,  0.884081800000000 ]
    mass: 32.065000
  - symbol: Zr # 7
    coordinates: [  0.652796720000000,  0.250000000000000,  0.717279060000000 ]
    mass: 91.224000
  - symbol: Zr # 8
    coordinates: [  0.347203280000000,  0.750000000000000,  0.282720940000000 ]
    mass: 91.224000
  reciprocal_lattice: # without 2pi
  - [     0.110305397712239,     0.000000000000000,    -0.013300677909466 ] # a*
  - [     0.000000000000000,     0.277825346879323,     0.000000000000000 ] # b*
  - [     0.000000000000000,     0.000000000000000,     0.198276968779215 ] # c*

unit_cell:
  lattice:
  - [     9.065739490000000,     0.000000000000000,     0.000000000000000 ] # a
  - [     0.000000000000000,     3.599383610000000,     0.000000000000000 ] # b
  - [     0.608141640000000,     0.000000000000000,     5.043450110000000 ] # c
  points:
  - symbol: S  # 1
    coordinates: [ -0.445244310000000,  0.250000000000000,  0.238173340000000 ]
    mass: 32.065000
    reduced_to: 1
  - symbol: S  # 2
    coordinates: [  0.445244310000000,  0.750000000000000, -0.238173340000000 ]
    mass: 32.065000
    reduced_to: 2
  - symbol: S  # 3
    coordinates: [  0.174896830000000,  0.250000000000000, -0.474755060000000 ]
    mass: 32.065000
    reduced_to: 3
  - symbol: S  # 4
    coordinates: [ -0.174896830000000,  0.750000000000000,  0.474755060000000 ]
    mass: 32.065000
    reduced_to: 4
  - symbol: S  # 5
    coordinates: [  0.173953000000000,  0.250000000000000,  0.115918200000000 ]
    mass: 32.065000
    reduced_to: 5
  - symbol: S  # 6
    coordinates: [ -0.173953000000000,  0.750000000000000, -0.115918200000000 ]
    mass: 32.065000
    reduced_to: 6
  - symbol: Zr # 7
    coordinates: [ -0.347203280000000,  0.250000000000000, -0.282720940000000 ]
    mass: 91.224000
    reduced_to: 7
  - symbol: Zr # 8
    coordinates: [  0.347203280000000,  0.750000000000000,  0.282720940000000 ]
    mass: 91.224000
    reduced_to: 8

supercell:
  lattice:
  - [    18.131478980000001,     0.000000000000000,     0.000000000000000 ] # a
  - [     0.000000000000000,    10.798150829999999,     0.000000000000000 ] # b
  - [     1.824424920000000,     0.000000000000000,    15.130350330000001 ] # c
  points:
  - symbol: S  # 1
    coordinates: [  0.777377845000000,  0.083333333333333,  0.079391113333333 ]
    mass: 32.065000
    reduced_to: 1
  - symbol: S  # 2
    coordinates: [  0.277377845000000,  0.083333333333333,  0.079391113333333 ]
    mass: 32.065000
    reduced_to: 1
  - symbol: S  # 3
    coordinates: [  0.777377845000000,  0.416666666666667,  0.079391113333333 ]
    mass: 32.065000
    reduced_to: 1
  - symbol: S  # 4
    coordinates: [  0.277377845000000,  0.416666666666667,  0.079391113333333 ]
    mass: 32.065000
    reduced_to: 1
  - symbol: S  # 5
    coordinates: [  0.777377845000000,  0.750000000000000,  0.079391113333333 ]
    mass: 32.065000
    reduced_to: 1
  - symbol: S  # 6
    coordinates: [  0.277377845000000,  0.750000000000000,  0.079391113333333 ]
    mass: 32.065000
    reduced_to: 1
  - symbol: S  # 7
    coordinates: [  0.777377845000000,  0.083333333333333,  0.412724446666667 ]
    mass: 32.065000
    reduced_to: 1
  - symbol: S  # 8
    coordinates: [  0.277377845000000,  0.083333333333333,  0.412724446666667 ]
    mass: 32.065000
    reduced_to: 1
  - symbol: S  # 9
    coordinates: [  0.777377845000000,  0.416666666666667,  0.412724446666667 ]
    mass: 32.065000
    reduced_to: 1
  - symbol: S  # 10
    coordinates: [  0.277377845000000,  0.416666666666667,  0.412724446666667 ]
    mass: 32.065000
    reduced_to: 1
  - symbol: S  # 11
    coordinates: [  0.777377845000000,  0.750000000000000,  0.412724446666667 ]
    mass: 32.065000
    reduced_to: 1
  - symbol: S  # 12
    coordinates: [  0.277377845000000,  0.750000000000000,  0.412724446666667 ]
    mass: 32.065000
    reduced_to: 1
  - symbol: S  # 13
    coordinates: [  0.777377845000000,  0.083333333333333,  0.746057780000000 ]
    mass: 32.065000
    reduced_to: 1
  - symbol: S  # 14
    coordinates: [  0.277377845000000,  0.083333333333333,  0.746057780000000 ]
    mass: 32.065000
    reduced_to: 1
  - symbol: S  # 15
    coordinates: [  0.777377845000000,  0.416666666666667,  0.746057780000000 ]
    mass: 32.065000
    reduced_to: 1
  - symbol: S  # 16
    coordinates: [  0.277377845000000,  0.416666666666667,  0.746057780000000 ]
    mass: 32.065000
    reduced_to: 1
  - symbol: S  # 17
    coordinates: [  0.777377845000000,  0.750000000000000,  0.746057780000000 ]
    mass: 32.065000
    reduced_to: 1
  - symbol: S  # 18
    coordinates: [  0.277377845000000,  0.750000000000000,  0.746057780000000 ]
    mass: 32.065000
    reduced_to: 1
  - symbol: S  # 19
    coordinates: [  0.222622155000000,  0.250000000000000,  0.920608886666667 ]
    mass: 32.065000
    reduced_to: 19
  - symbol: S  # 20
    coordinates: [  0.722622155000000,  0.250000000000000,  0.920608886666667 ]
    mass: 32.065000
    reduced_to: 19
  - symbol: S  # 21
    coordinates: [  0.222622155000000,  0.583333333333333,  0.920608886666667 ]
    mass: 32.065000
    reduced_to: 19
  - symbol: S  # 22
    coordinates: [  0.722622155000000,  0.583333333333333,  0.920608886666667 ]
    mass: 32.065000
    reduced_to: 19
  - symbol: S  # 23
    coordinates: [  0.222622155000000,  0.916666666666667,  0.920608886666667 ]
    mass: 32.065000
    reduced_to: 19
  - symbol: S  # 24
    coordinates: [  0.722622155000000,  0.916666666666667,  0.920608886666667 ]
    mass: 32.065000
    reduced_to: 19
  - symbol: S  # 25
    coordinates: [  0.222622155000000,  0.250000000000000,  0.253942220000000 ]
    mass: 32.065000
    reduced_to: 19
  - symbol: S  # 26
    coordinates: [  0.722622155000000,  0.250000000000000,  0.253942220000000 ]
    mass: 32.065000
    reduced_to: 19
  - symbol: S  # 27
    coordinates: [  0.222622155000000,  0.583333333333333,  0.253942220000000 ]
    mass: 32.065000
    reduced_to: 19
  - symbol: S  # 28
    coordinates: [  0.722622155000000,  0.583333333333333,  0.253942220000000 ]
    mass: 32.065000
    reduced_to: 19
  - symbol: S  # 29
    coordinates: [  0.222622155000000,  0.916666666666667,  0.253942220000000 ]
    mass: 32.065000
    reduced_to: 19
  - symbol: S  # 30
    coordinates: [  0.722622155000000,  0.916666666666667,  0.253942220000000 ]
    mass: 32.065000
    reduced_to: 19
  - symbol: S  # 31
    coordinates: [  0.222622155000000,  0.250000000000000,  0.587275553333333 ]
    mass: 32.065000
    reduced_to: 19
  - symbol: S  # 32
    coordinates: [  0.722622155000000,  0.250000000000000,  0.587275553333333 ]
    mass: 32.065000
    reduced_to: 19
  - symbol: S  # 33
    coordinates: [  0.222622155000000,  0.583333333333333,  0.587275553333333 ]
    mass: 32.065000
    reduced_to: 19
  - symbol: S  # 34
    coordinates: [  0.722622155000000,  0.583333333333333,  0.587275553333333 ]
    mass: 32.065000
    reduced_to: 19
  - symbol: S  # 35
    coordinates: [  0.222622155000000,  0.916666666666667,  0.587275553333333 ]
    mass: 32.065000
    reduced_to: 19
  - symbol: S  # 36
    coordinates: [  0.722622155000000,  0.916666666666667,  0.587275553333333 ]
    mass: 32.065000
    reduced_to: 19
  - symbol: S  # 37
    coordinates: [  0.087448415000000,  0.083333333333333,  0.841748313333333 ]
    mass: 32.065000
    reduced_to: 37
  - symbol: S  # 38
    coordinates: [  0.587448415000000,  0.083333333333333,  0.841748313333333 ]
    mass: 32.065000
    reduced_to: 37
  - symbol: S  # 39
    coordinates: [  0.087448415000000,  0.416666666666667,  0.841748313333333 ]
    mass: 32.065000
    reduced_to: 37
  - symbol: S  # 40
    coordinates: [  0.587448415000000,  0.416666666666667,  0.841748313333333 ]
    mass: 32.065000
    reduced_to: 37
  - symbol: S  # 41
    coordinates: [  0.087448415000000,  0.750000000000000,  0.841748313333333 ]
    mass: 32.065000
    reduced_to: 37
  - symbol: S  # 42
    coordinates: [  0.587448415000000,  0.750000000000000,  0.841748313333333 ]
    mass: 32.065000
    reduced_to: 37
  - symbol: S  # 43
    coordinates: [  0.087448415000000,  0.083333333333333,  0.175081646666667 ]
    mass: 32.065000
    reduced_to: 37
  - symbol: S  # 44
    coordinates: [  0.587448415000000,  0.083333333333333,  0.175081646666667 ]
    mass: 32.065000
    reduced_to: 37
  - symbol: S  # 45
    coordinates: [  0.087448415000000,  0.416666666666667,  0.175081646666667 ]
    mass: 32.065000
    reduced_to: 37
  - symbol: S  # 46
    coordinates: [  0.587448415000000,  0.416666666666667,  0.175081646666667 ]
    mass: 32.065000
    reduced_to: 37
  - symbol: S  # 47
    coordinates: [  0.087448415000000,  0.750000000000000,  0.175081646666667 ]
    mass: 32.065000
    reduced_to: 37
  - symbol: S  # 48
    coordinates: [  0.587448415000000,  0.750000000000000,  0.175081646666667 ]
    mass: 32.065000
    reduced_to: 37
  - symbol: S  # 49
    coordinates: [  0.087448415000000,  0.083333333333333,  0.508414980000000 ]
    mass: 32.065000
    reduced_to: 37
  - symbol: S  # 50
    coordinates: [  0.587448415000000,  0.083333333333333,  0.508414980000000 ]
    mass: 32.065000
    reduced_to: 37
  - symbol: S  # 51
    coordinates: [  0.087448415000000,  0.416666666666667,  0.508414980000000 ]
    mass: 32.065000
    reduced_to: 37
  - symbol: S  # 52
    coordinates: [  0.587448415000000,  0.416666666666667,  0.508414980000000 ]
    mass: 32.065000
    reduced_to: 37
  - symbol: S  # 53
    coordinates: [  0.087448415000000,  0.750000000000000,  0.508414980000000 ]
    mass: 32.065000
    reduced_to: 37
  - symbol: S  # 54
    coordinates: [  0.587448415000000,  0.750000000000000,  0.508414980000000 ]
    mass: 32.065000
    reduced_to: 37
  - symbol: S  # 55
    coordinates: [  0.912551585000000,  0.250000000000000,  0.158251686666667 ]
    mass: 32.065000
    reduced_to: 55
  - symbol: S  # 56
    coordinates: [  0.412551585000000,  0.250000000000000,  0.158251686666667 ]
    mass: 32.065000
    reduced_to: 55
  - symbol: S  # 57
    coordinates: [  0.912551585000000,  0.583333333333333,  0.158251686666667 ]
    mass: 32.065000
    reduced_to: 55
  - symbol: S  # 58
    coordinates: [  0.412551585000000,  0.583333333333333,  0.158251686666667 ]
    mass: 32.065000
    reduced_to: 55
  - symbol: S  # 59
    coordinates: [  0.912551585000000,  0.916666666666667,  0.158251686666667 ]
    mass: 32.065000
    reduced_to: 55
  - symbol: S  # 60
    coordinates: [  0.412551585000000,  0.916666666666667,  0.158251686666667 ]
    mass: 32.065000
    reduced_to: 55
  - symbol: S  # 61
    coordinates: [  0.912551585000000,  0.250000000000000,  0.491585020000000 ]
    mass: 32.065000
    reduced_to: 55
  - symbol: S  # 62
    coordinates: [  0.412551585000000,  0.250000000000000,  0.491585020000000 ]
    mass: 32.065000
    reduced_to: 55
  - symbol: S  # 63
    coordinates: [  0.912551585000000,  0.583333333333333,  0.491585020000000 ]
    mass: 32.065000
    reduced_to: 55
  - symbol: S  # 64
    coordinates: [  0.412551585000000,  0.583333333333333,  0.491585020000000 ]
    mass: 32.065000
    reduced_to: 55
  - symbol: S  # 65
    coordinates: [  0.912551585000000,  0.916666666666667,  0.491585020000000 ]
    mass: 32.065000
    reduced_to: 55
  - symbol: S  # 66
    coordinates: [  0.412551585000000,  0.916666666666667,  0.491585020000000 ]
    mass: 32.065000
    reduced_to: 55
  - symbol: S  # 67
    coordinates: [  0.912551585000000,  0.250000000000000,  0.824918353333333 ]
    mass: 32.065000
    reduced_to: 55
  - symbol: S  # 68
    coordinates: [  0.412551585000000,  0.250000000000000,  0.824918353333333 ]
    mass: 32.065000
    reduced_to: 55
  - symbol: S  # 69
    coordinates: [  0.912551585000000,  0.583333333333333,  0.824918353333333 ]
    mass: 32.065000
    reduced_to: 55
  - symbol: S  # 70
    coordinates: [  0.412551585000000,  0.583333333333333,  0.824918353333333 ]
    mass: 32.065000
    reduced_to: 55
  - symbol: S  # 71
    coordinates: [  0.912551585000000,  0.916666666666667,  0.824918353333333 ]
    mass: 32.065000
    reduced_to: 55
  - symbol: S  # 72
    coordinates: [  0.412551585000000,  0.916666666666667,  0.824918353333333 ]
    mass: 32.065000
    reduced_to: 55
  - symbol: S  # 73
    coordinates: [  0.086976500000000,  0.083333333333333,  0.038639400000000 ]
    mass: 32.065000
    reduced_to: 73
  - symbol: S  # 74
    coordinates: [  0.586976500000000,  0.083333333333333,  0.038639400000000 ]
    mass: 32.065000
    reduced_to: 73
  - symbol: S  # 75
    coordinates: [  0.086976500000000,  0.416666666666667,  0.038639400000000 ]
    mass: 32.065000
    reduced_to: 73
  - symbol: S  # 76
    coordinates: [  0.586976500000000,  0.416666666666667,  0.038639400000000 ]
    mass: 32.065000
    reduced_to: 73
  - symbol: S  # 77
    coordinates: [  0.086976500000000,  0.750000000000000,  0.038639400000000 ]
    mass: 32.065000
    reduced_to: 73
  - symbol: S  # 78
    coordinates: [  0.586976500000000,  0.750000000000000,  0.038639400000000 ]
    mass: 32.065000
    reduced_to: 73
  - symbol: S  # 79
    coordinates: [  0.086976500000000,  0.083333333333333,  0.371972733333333 ]
    mass: 32.065000
    reduced_to: 73
  - symbol: S  # 80
    coordinates: [  0.586976500000000,  0.083333333333333,  0.371972733333333 ]
    mass: 32.065000
    reduced_to: 73
  - symbol: S  # 81
    coordinates: [  0.086976500000000,  0.416666666666667,  0.371972733333333 ]
    mass: 32.065000
    reduced_to: 73
  - symbol: S  # 82
    coordinates: [  0.586976500000000,  0.416666666666667,  0.371972733333333 ]
    mass: 32.065000
    reduced_to: 73
  - symbol: S  # 83
    coordinates: [  0.086976500000000,  0.750000000000000,  0.371972733333333 ]
    mass: 32.065000
    reduced_to: 73
  - symbol: S  # 84
    coordinates: [  0.586976500000000,  0.750000000000000,  0.371972733333333 ]
    mass: 32.065000
    reduced_to: 73
  - symbol: S  # 85
    coordinates: [  0.086976500000000,  0.083333333333333,  0.705306066666667 ]
    mass: 32.065000
    reduced_to: 73
  - symbol: S  # 86
    coordinates: [  0.586976500000000,  0.083333333333333,  0.705306066666667 ]
    mass: 32.065000
    reduced_to: 73
  - symbol: S  # 87
    coordinates: [  0.086976500000000,  0.416666666666667,  0.705306066666667 ]
    mass: 32.065000
    reduced_to: 73
  - symbol: S  # 88
    coordinates: [  0.586976500000000,  0.416666666666667,  0.705306066666667 ]
    mass: 32.065000
    reduced_to: 73
  - symbol: S  # 89
    coordinates: [  0.086976500000000,  0.750000000000000,  0.705306066666667 ]
    mass: 32.065000
    reduced_to: 73
  - symbol: S  # 90
    coordinates: [  0.586976500000000,  0.750000000000000,  0.705306066666667 ]
    mass: 32.065000
    reduced_to: 73
  - symbol: S  # 91
    coordinates: [  0.913023500000000,  0.250000000000000,  0.961360600000000 ]
    mass: 32.065000
    reduced_to: 91
  - symbol: S  # 92
    coordinates: [  0.413023500000000,  0.250000000000000,  0.961360600000000 ]
    mass: 32.065000
    reduced_to: 91
  - symbol: S  # 93
    coordinates: [  0.913023500000000,  0.583333333333333,  0.961360600000000 ]
    mass: 32.065000
    reduced_to: 91
  - symbol: S  # 94
    coordinates: [  0.413023500000000,  0.583333333333333,  0.961360600000000 ]
    mass: 32.065000
    reduced_to: 91
  - symbol: S  # 95
    coordinates: [  0.913023500000000,  0.916666666666667,  0.961360600000000 ]
    mass: 32.065000
    reduced_to: 91
  - symbol: S  # 96
    coordinates: [  0.413023500000000,  0.916666666666667,  0.961360600000000 ]
    mass: 32.065000
    reduced_to: 91
  - symbol: S  # 97
    coordinates: [  0.913023500000000,  0.250000000000000,  0.294693933333333 ]
    mass: 32.065000
    reduced_to: 91
  - symbol: S  # 98
    coordinates: [  0.413023500000000,  0.250000000000000,  0.294693933333333 ]
    mass: 32.065000
    reduced_to: 91
  - symbol: S  # 99
    coordinates: [  0.913023500000000,  0.583333333333333,  0.294693933333333 ]
    mass: 32.065000
    reduced_to: 91
  - symbol: S  # 100
    coordinates: [  0.413023500000000,  0.583333333333333,  0.294693933333333 ]
    mass: 32.065000
    reduced_to: 91
  - symbol: S  # 101
    coordinates: [  0.913023500000000,  0.916666666666667,  0.294693933333333 ]
    mass: 32.065000
    reduced_to: 91
  - symbol: S  # 102
    coordinates: [  0.413023500000000,  0.916666666666667,  0.294693933333333 ]
    mass: 32.065000
    reduced_to: 91
  - symbol: S  # 103
    coordinates: [  0.913023500000000,  0.250000000000000,  0.628027266666667 ]
    mass: 32.065000
    reduced_to: 91
  - symbol: S  # 104
    coordinates: [  0.413023500000000,  0.250000000000000,  0.628027266666667 ]
    mass: 32.065000
    reduced_to: 91
  - symbol: S  # 105
    coordinates: [  0.913023500000000,  0.583333333333333,  0.628027266666667 ]
    mass: 32.065000
    reduced_to: 91
  - symbol: S  # 106
    coordinates: [  0.413023500000000,  0.583333333333333,  0.628027266666667 ]
    mass: 32.065000
    reduced_to: 91
  - symbol: S  # 107
    coordinates: [  0.913023500000000,  0.916666666666667,  0.628027266666667 ]
    mass: 32.065000
    reduced_to: 91
  - symbol: S  # 108
    coordinates: [  0.413023500000000,  0.916666666666667,  0.628027266666667 ]
    mass: 32.065000
    reduced_to: 91
  - symbol: Zr # 109
    coordinates: [  0.826398360000000,  0.083333333333333,  0.905759686666667 ]
    mass: 91.224000
    reduced_to: 109
  - symbol: Zr # 110
    coordinates: [  0.326398360000000,  0.083333333333333,  0.905759686666667 ]
    mass: 91.224000
    reduced_to: 109
  - symbol: Zr # 111
    coordinates: [  0.826398360000000,  0.416666666666667,  0.905759686666667 ]
    mass: 91.224000
    reduced_to: 109
  - symbol: Zr # 112
    coordinates: [  0.326398360000000,  0.416666666666667,  0.905759686666667 ]
    mass: 91.224000
    reduced_to: 109
  - symbol: Zr # 113
    coordinates: [  0.826398360000000,  0.750000000000000,  0.905759686666667 ]
    mass: 91.224000
    reduced_to: 109
  - symbol: Zr # 114
    coordinates: [  0.326398360000000,  0.750000000000000,  0.905759686666667 ]
    mass: 91.224000
    reduced_to: 109
  - symbol: Zr # 115
    coordinates: [  0.826398360000000,  0.083333333333333,  0.239093020000000 ]
    mass: 91.224000
    reduced_to: 109
  - symbol: Zr # 116
    coordinates: [  0.326398360000000,  0.083333333333333,  0.239093020000000 ]
    mass: 91.224000
    reduced_to: 109
  - symbol: Zr # 117
    coordinates: [  0.826398360000000,  0.416666666666667,  0.239093020000000 ]
    mass: 91.224000
    reduced_to: 109
  - symbol: Zr # 118
    coordinates: [  0.326398360000000,  0.416666666666667,  0.239093020000000 ]
    mass: 91.224000
    reduced_to: 109
  - symbol: Zr # 119
    coordinates: [  0.826398360000000,  0.750000000000000,  0.239093020000000 ]
    mass: 91.224000
    reduced_to: 109
  - symbol: Zr # 120
    coordinates: [  0.326398360000000,  0.750000000000000,  0.239093020000000 ]
    mass: 91.224000
    reduced_to: 109
  - symbol: Zr # 121
    coordinates: [  0.826398360000000,  0.083333333333333,  0.572426353333333 ]
    mass: 91.224000
    reduced_to: 109
  - symbol: Zr # 122
    coordinates: [  0.326398360000000,  0.083333333333333,  0.572426353333333 ]
    mass: 91.224000
    reduced_to: 109
  - symbol: Zr # 123
    coordinates: [  0.826398360000000,  0.416666666666667,  0.572426353333333 ]
    mass: 91.224000
    reduced_to: 109
  - symbol: Zr # 124
    coordinates: [  0.326398360000000,  0.416666666666667,  0.572426353333333 ]
    mass: 91.224000
    reduced_to: 109
  - symbol: Zr # 125
    coordinates: [  0.826398360000000,  0.750000000000000,  0.572426353333333 ]
    mass: 91.224000
    reduced_to: 109
  - symbol: Zr # 126
    coordinates: [  0.326398360000000,  0.750000000000000,  0.572426353333333 ]
    mass: 91.224000
    reduced_to: 109
  - symbol: Zr # 127
    coordinates: [  0.173601640000000,  0.250000000000000,  0.094240313333333 ]
    mass: 91.224000
    reduced_to: 127
  - symbol: Zr # 128
    coordinates: [  0.673601640000000,  0.250000000000000,  0.094240313333333 ]
    mass: 91.224000
    reduced_to: 127
  - symbol: Zr # 129
    coordinates: [  0.173601640000000,  0.583333333333333,  0.094240313333333 ]
    mass: 91.224000
    reduced_to: 127
  - symbol: Zr # 130
    coordinates: [  0.673601640000000,  0.583333333333333,  0.094240313333333 ]
    mass: 91.224000
    reduced_to: 127
  - symbol: Zr # 131
    coordinates: [  0.173601640000000,  0.916666666666667,  0.094240313333333 ]
    mass: 91.224000
    reduced_to: 127
  - symbol: Zr # 132
    coordinates: [  0.673601640000000,  0.916666666666667,  0.094240313333333 ]
    mass: 91.224000
    reduced_to: 127
  - symbol: Zr # 133
    coordinates: [  0.173601640000000,  0.250000000000000,  0.427573646666667 ]
    mass: 91.224000
    reduced_to: 127
  - symbol: Zr # 134
    coordinates: [  0.673601640000000,  0.250000000000000,  0.427573646666667 ]
    mass: 91.224000
    reduced_to: 127
  - symbol: Zr # 135
    coordinates: [  0.173601640000000,  0.583333333333333,  0.427573646666667 ]
    mass: 91.224000
    reduced_to: 127
  - symbol: Zr # 136
    coordinates: [  0.673601640000000,  0.583333333333333,  0.427573646666667 ]
    mass: 91.224000
    reduced_to: 127
  - symbol: Zr # 137
    coordinates: [  0.173601640000000,  0.916666666666667,  0.427573646666667 ]
    mass: 91.224000
    reduced_to: 127
  - symbol: Zr # 138
    coordinates: [  0.673601640000000,  0.916666666666667,  0.427573646666667 ]
    mass: 91.224000
    reduced_to: 127
  - symbol: Zr # 139
    coordinates: [  0.173601640000000,  0.250000000000000,  0.760906980000000 ]
    mass: 91.224000
    reduced_to: 127
  - symbol: Zr # 140
    coordinates: [  0.673601640000000,  0.250000000000000,  0.760906980000000 ]
    mass: 91.224000
    reduced_to: 127
  - symbol: Zr # 141
    coordinates: [  0.173601640000000,  0.583333333333333,  0.760906980000000 ]
    mass: 91.224000
    reduced_to: 127
  - symbol: Zr # 142
    coordinates: [  0.673601640000000,  0.583333333333333,  0.760906980000000 ]
    mass: 91.224000
    reduced_to: 127
  - symbol: Zr # 143
    coordinates: [  0.173601640000000,  0.916666666666667,  0.760906980000000 ]
    mass: 91.224000
    reduced_to: 127
  - symbol: Zr # 144
    coordinates: [  0.673601640000000,  0.916666666666667,  0.760906980000000 ]
    mass: 91.224000
    reduced_to: 127

displacements:
- atom:    1
  displacement:
    [   0.0085917615255254,  0.0051167991839138,  0.0000000000000000 ]
- atom:    1
  displacement:
    [  -0.0085917615255254, -0.0051167991839138,  0.0000000000000000 ]
- atom:    1
  displacement:
    [   0.0011971332654653,  0.0000000000000000,  0.0099280850089389 ]
- atom:    1
  displacement:
    [  -0.0011971332654653,  0.0000000000000000, -0.0099280850089389 ]
- atom:   37
  displacement:
    [   0.0085917615255254,  0.0051167991839138,  0.0000000000000000 ]
- atom:   37
  displacement:
    [  -0.0085917615255254, -0.0051167991839138,  0.0000000000000000 ]
- atom:   37
  displacement:
    [   0.0011971332654653,  0.0000000000000000,  0.0099280850089389 ]
- atom:   37
  displacement:
    [  -0.0011971332654653,  0.0000000000000000, -0.0099280850089389 ]
- atom:   73
  displacement:
    [   0.0085917615255254,  0.0051167991839138,  0.0000000000000000 ]
- atom:   73
  displacement:
    [  -0.0085917615255254, -0.0051167991839138,  0.0000000000000000 ]
- atom:   73
  displacement:
    [   0.0011971332654653,  0.0000000000000000,  0.0099280850089389 ]
- atom:   73
  displacement:
    [  -0.0011971332654653,  0.0000000000000000, -0.0099280850089389 ]
- atom:  109
  displacement:
    [   0.0085917615255254,  0.0051167991839138,  0.0000000000000000 ]
- atom:  109
  displacement:
    [  -0.0085917615255254, -0.0051167991839138,  0.0000000000000000 ]
- atom:  109
  displacement:
    [   0.0011971332654653,  0.0000000000000000,  0.0099280850089389 ]
- atom:  109
  displacement:
    [  -0.0011971332654653,  0.0000000000000000, -0.0099280850089389 ]
