16   
2    

1    
  0.0000000000000000   0.0070710678118655   0.0070710678118655
   0.0000010317   -0.0306190106   -0.0306237760
  -0.0000073039    0.0107926460    0.0107926765
   0.0075383838   -0.0006239555    0.0032634000
  -0.0075419794    0.0032562051   -0.0006225400
   0.0075399697    0.0032580565   -0.0006185498
  -0.0075427456   -0.0006286897    0.0032616058
   0.0000072158   -0.0042809018   -0.0042753837
  -0.0000043836    0.0043682073    0.0043846793
  -0.0000076731   -0.0005134881   -0.0005184064
  -0.0000122654    0.0010487927    0.0010438643
   0.0000012545    0.0058134208    0.0010331363
   0.0000012384    0.0010585175    0.0054917880
   0.0000012605    0.0010380811    0.0058084823
   0.0000011969    0.0054967403    0.0010535528
   0.0000146819    0.0010488389    0.0010438896
   0.0000101178   -0.0005134607   -0.0005184191

9    
  0.0000000000000000   0.0070710678118655   0.0070710678118655
   0.0000056298   -0.0005163878   -0.0005205730
  -0.0000015914    0.0010769546    0.0010767877
   0.0000033545    0.0054452535    0.0010903423
  -0.0000066944    0.0010615627    0.0057351807
   0.0000054026    0.0010851770    0.0054505960
  -0.0000079453    0.0057293964    0.0010672460
   0.0000014178    0.0010717032    0.0010772435
  -0.0000097654   -0.0005394110   -0.0005222709
   0.0000012603   -0.0240956820   -0.0241004987
   0.0000013064    0.0044027148    0.0043981177
   0.0030899861   -0.0005410306    0.0013018953
  -0.0030872651    0.0013065853   -0.0005464470
   0.0030898194    0.0013065692   -0.0005464553
  -0.0030874253   -0.0005410304    0.0013018954
   0.0000012232   -0.0018067500   -0.0018132209
   0.0000012867    0.0055543751    0.0055501613
