28   
13   

1    
 -0.0028873010625394   0.0028873010625394   0.0091283615807283
   0.0055438333   -0.0061171488   -0.0460518780
   0.0006284629    0.0021963459   -0.0022024606
  -0.0016468293   -0.0011794452   -0.0025646555
  -0.0006687137    0.0012280163   -0.0010657865
  -0.0015161466   -0.0026920000    0.0071687645
  -0.0020940099    0.0028579512    0.0047554697
   0.0013259201   -0.0020890878    0.0020902049
   0.0019274092    0.0022865857    0.0024936737
   0.0000730333    0.0016582607    0.0015927815
  -0.0008067191   -0.0012603916    0.0006925710
  -0.0016383775    0.0032410935    0.0013408374
   0.0006529512   -0.0027512475   -0.0010131054
  -0.0008400982    0.0015749957    0.0024493341
   0.0006527005   -0.0000111099    0.0004764211
   0.0004453619   -0.0007142708    0.0001032278
  -0.0011340692    0.0008690922   -0.0004130294
  -0.0004241759    0.0012948876    0.0121029943
   0.0003499660   -0.0008628513   -0.0017255852
  -0.0000083262    0.0005219787   -0.0004919260
  -0.0003617057   -0.0005073419   -0.0013498180
  -0.0001361486    0.0008953547    0.0034666723
   0.0011338231   -0.0012410876    0.0040101077
   0.0004998357   -0.0003895782    0.0022320178
  -0.0008276486    0.0000711005    0.0027834570
   0.0053021068    0.0030040210   -0.0004128320
   0.0025032942   -0.0024142636   -0.0037436729
  -0.0058768903    0.0057829526    0.0030761623
  -0.0030588393   -0.0052528119    0.0102000524

1    
  0.0028873010625394  -0.0028873010625394  -0.0091283615807283
  -0.0057586569    0.0063210081    0.0438266664
  -0.0006069317   -0.0022198080    0.0001723596
   0.0016266881    0.0011974817    0.0005314579
   0.0006748088   -0.0012244703   -0.0010581104
   0.0014812227    0.0026772155   -0.0051118436
   0.0020852145   -0.0028580061   -0.0026878786
  -0.0013276136    0.0020997550   -0.0000697330
  -0.0018818282   -0.0022714137   -0.0005462196
  -0.0001136141   -0.0016650591   -0.0016331682
   0.0008128156    0.0012622258   -0.0007004043
   0.0018138950   -0.0032415590   -0.0015242127
  -0.0006577409    0.0027463667    0.0009891148
   0.0008589160   -0.0017549998   -0.0026200030
  -0.0006291545    0.0000522880   -0.0005310440
  -0.0004526455    0.0007187965   -0.0001143741
   0.0011215028   -0.0008738570    0.0003927504
   0.0004456673   -0.0013232869   -0.0125046240
  -0.0003538612    0.0008627799    0.0005648729
   0.0000130925   -0.0005219058   -0.0006727824
   0.0003668698    0.0005065592    0.0001930029
   0.0001282086   -0.0009063985   -0.0023137657
  -0.0011696475    0.0012804555   -0.0028427649
  -0.0004848854    0.0003760444   -0.0011169742
   0.0008411457   -0.0000612780   -0.0016268756
  -0.0053390328   -0.0029962885    0.0004159129
  -0.0024880156    0.0023942754    0.0037613987
   0.0059487482   -0.0058608324   -0.0030856655
   0.0030448324    0.0052839115   -0.0100870928

1    
  0.0028873010625394   0.0028873010625394  -0.0091283615807283
  -0.0057768340   -0.0057724720    0.0436389215
  -0.0005852077    0.0016459871    0.0003531616
   0.0016479946   -0.0005853410    0.0003505391
   0.0006482223    0.0006461455   -0.0008764805
   0.0017650044    0.0017687567   -0.0064228671
   0.0018008387   -0.0016174072   -0.0013763432
  -0.0016120268    0.0018015954   -0.0013864498
  -0.0015966789   -0.0016090736    0.0007706559
  -0.0001136366    0.0008559115   -0.0015884721
   0.0008126333   -0.0004504771   -0.0007450997
   0.0018142601   -0.0006243095   -0.0015617956
  -0.0006571771    0.0011212249    0.0010259548
   0.0008554733   -0.0001131691   -0.0015885015
  -0.0006248427    0.0018148516   -0.0015618272
  -0.0004510340    0.0008131308   -0.0007451371
   0.0011206371   -0.0006566887    0.0010260677
   0.0001631647    0.0001636524   -0.0118850177
  -0.0000716909    0.0002962096   -0.0000535193
   0.0002957128   -0.0000712267   -0.0000534980
   0.0000843717    0.0000848553   -0.0004256576
  -0.0012040665   -0.0012035730   -0.0031738940
   0.0001630734    0.0008326473   -0.0019823702
   0.0008321664    0.0001635297   -0.0019822675
  -0.0004757097   -0.0004752435   -0.0007611270
  -0.0023906490   -0.0023902344    0.0038294015
  -0.0054342234    0.0029924554    0.0003484520
   0.0029905766   -0.0054324341    0.0003506840
   0.0059996477    0.0060006965   -0.0135235131

1    
 -0.0028873010625394  -0.0028873010625394   0.0091283615807283
   0.0055612901    0.0055671840   -0.0458577364
   0.0006073331   -0.0016700421   -0.0023832083
  -0.0016680828    0.0006071614   -0.0023860166
  -0.0006424912   -0.0006445106   -0.0012464433
  -0.0018138839   -0.0018103502    0.0084994404
  -0.0017966225    0.0016156319    0.0034244301
   0.0016210010   -0.0017960703    0.0034143505
   0.0016326638    0.0016201801    0.0011700041
   0.0000728967   -0.0008433152    0.0015469983
  -0.0008070381    0.0004474457    0.0007373655
  -0.0016381555    0.0006574390    0.0013779817
   0.0006533648   -0.0011347669   -0.0010500651
  -0.0008436968    0.0000734178    0.0015470351
   0.0006568812   -0.0016377310    0.0013779280
   0.0004469306   -0.0008065987    0.0007373782
  -0.0011351335    0.0006538064   -0.0010501458
  -0.0001471641   -0.0001466833    0.0114861724
   0.0000716524   -0.0002845407   -0.0011090356
  -0.0002849780    0.0000721016   -0.0011090241
  -0.0000843360   -0.0000839140   -0.0007334703
   0.0011676808    0.0011681204    0.0043573978
  -0.0001701229   -0.0008187228    0.0031178069
  -0.0008191480   -0.0001696887    0.0031176006
   0.0004911914    0.0004915866    0.0018963819
   0.0024134416    0.0024138706   -0.0038336349
   0.0053884837   -0.0029966096   -0.0003238680
  -0.0029983903    0.0053901627   -0.0003215564
  -0.0059355674   -0.0059345643    0.0135959334

9    
 -0.0028873010625394   0.0028873010625394   0.0091283615807283
   0.0007512849    0.0013377447    0.0009803814
  -0.0010448411   -0.0009241598   -0.0004977874
  -0.0024712434    0.0012621547    0.0009389719
   0.0008974130   -0.0007196045   -0.0026126660
  -0.0022559931    0.0012465504    0.0028586510
   0.0009030350   -0.0007276969   -0.0005463053
   0.0007037551    0.0013444239    0.0029333279
  -0.0010406017   -0.0009104071    0.0014807953
   0.0076657274   -0.0510369611   -0.0251906406
  -0.0009177125    0.0097417559    0.0009317230
  -0.0008209914   -0.0017266926   -0.0007025515
  -0.0009276964    0.0022873353   -0.0001487553
  -0.0056688941    0.0037789735   -0.0010325660
   0.0017543525    0.0000693373   -0.0009748730
   0.0017961426    0.0000972313   -0.0009714050
  -0.0056591153    0.0037777446   -0.0010449395
  -0.0000838947   -0.0005592683   -0.0005056195
   0.0001090187    0.0005268624   -0.0001262039
   0.0005817417   -0.0040064854    0.0020918521
   0.0003621649    0.0079240878    0.0065830462
   0.0005834765   -0.0040176567    0.0032192103
   0.0003750613    0.0080287508    0.0078086398
  -0.0000851226   -0.0005625377    0.0006457840
   0.0001048248    0.0005306484    0.0010213391
  -0.0001657772    0.0118168305    0.0015313611
  -0.0001159897    0.0118958008    0.0013662572
   0.0023300571   -0.0002323695   -0.0000210219
   0.0023398175   -0.0002423926   -0.0000160057

9    
  0.0028873010625394  -0.0028873010625394   0.0091283615807283
   0.0023946877   -0.0011860736    0.0013495834
  -0.0009469409    0.0007551252   -0.0007259670
  -0.0007028745   -0.0013531279   -0.0009052312
   0.0011181632    0.0008569449   -0.0009093238
  -0.0006518598   -0.0013639388    0.0011393860
   0.0011251498    0.0008394870    0.0011686999
   0.0021803919   -0.0011740437    0.0031641913
  -0.0009459170    0.0007612051    0.0012533529
  -0.0078424570    0.0508299287   -0.0251803783
   0.0007399116   -0.0095322948    0.0008096283
   0.0009982032    0.0015200348   -0.0005844716
   0.0011135260   -0.0020794243   -0.0001606441
   0.0056580382   -0.0037776965   -0.0010422441
  -0.0017976381   -0.0000958072   -0.0009697516
  -0.0017531590   -0.0000694620   -0.0009742439
   0.0056695358   -0.0037779533   -0.0010294613
   0.0002516943   -0.0002285054    0.0008546222
   0.0004758311    0.0002642028   -0.0006067425
  -0.0007756078   -0.0076367791    0.0066839660
  -0.0009578153    0.0036928612    0.0011111095
  -0.0007882710   -0.0077443576    0.0079114353
  -0.0009609876    0.0037073666    0.0022461552
   0.0002594219   -0.0002347932    0.0019944315
   0.0004775801    0.0002695315    0.0005432905
   0.0001799380   -0.0118938445    0.0016881589
   0.0002301040   -0.0118159838    0.0018624363
  -0.0023801474    0.0002394471   -0.0003481583
  -0.0023685015    0.0002279507   -0.0003438295

9    
  0.0028873010625394   0.0028873010625394  -0.0091283615807283
  -0.0007162055    0.0011873988   -0.0026383965
   0.0010650573   -0.0007726191   -0.0017776968
   0.0022415320    0.0013727085   -0.0015786642
  -0.0008906686   -0.0008524409   -0.0007274011
   0.0024549240    0.0013619766    0.0003272638
  -0.0008842315   -0.0008721554    0.0013516391
  -0.0007636357    0.0011987786   -0.0006855909
   0.0010690714   -0.0007635912    0.0002004769
  -0.0075722876   -0.0507360157    0.0251216903
   0.0008228157    0.0094396758   -0.0008688203
   0.0007271027   -0.0016126452    0.0006322680
   0.0010222877    0.0021710957    0.0002144198
  -0.0016606209    0.0002316628    0.0010342749
   0.0055232995    0.0036430932    0.0009695416
   0.0055327584    0.0036425534    0.0009637692
  -0.0016183030    0.0002052561    0.0010382054
   0.0000855720    0.0002356695   -0.0012034145
  -0.0001078472   -0.0002694306   -0.0004695199
  -0.0005870406    0.0077435737   -0.0087082203
  -0.0003722895   -0.0037055993   -0.0023258193
  -0.0005774324    0.0076376864   -0.0074916122
  -0.0003661992   -0.0036916195   -0.0011888016
   0.0000838147    0.0002294287   -0.0000524444
  -0.0001114929   -0.0002639349    0.0006782553
   0.0001656556    0.0118166709   -0.0015294638
   0.0001116415    0.0118954947   -0.0013617874
  -0.0023302967   -0.0002309019    0.0000315052
  -0.0023469811   -0.0002417700    0.0000443438

17   
 -0.0028873010625394   0.0028873010625394   0.0091283615807283
   0.0000687358    0.0018571791    0.0109520630
   0.0008981870   -0.0014126694   -0.0018340716
  -0.0005515905    0.0010588360   -0.0012809977
  -0.0008952755   -0.0010250424   -0.0018391293
  -0.0019414539   -0.0008978868    0.0039636430
  -0.0006555199    0.0005448280    0.0033497647
   0.0022842847   -0.0021720927    0.0038098267
   0.0009714579    0.0018737586    0.0031870943
   0.0009477530   -0.0010410369    0.0005862429
  -0.0000923553    0.0010107013    0.0002243814
  -0.0005220571   -0.0067725169    0.0030179131
   0.0005499086    0.0107982017    0.0063919204
  -0.0007108647    0.0013095244    0.0008789604
  -0.0104944580   -0.0018502021    0.0068076973
   0.0007429296    0.0002962234    0.0001658032
   0.0064721969   -0.0007655060    0.0023691978
   0.0040802955   -0.0046195046   -0.0836335214
   0.0000557972    0.0012093279   -0.0017771819
  -0.0006706763   -0.0005949732   -0.0021181149
  -0.0002911663    0.0008517848   -0.0000906747
   0.0016550175    0.0015644185    0.0025792753
   0.0004917688   -0.0012333061    0.0032124760
  -0.0019911878    0.0027361413    0.0052956738
  -0.0019721436   -0.0013500741    0.0131644771
  -0.0001963281   -0.0004929110   -0.0018523849
   0.0024563902    0.0005500242    0.0000077284
   0.0001320067   -0.0031801830   -0.0014530183
  -0.0008216526    0.0017469560    0.0259149559

17   
  0.0028873010625394  -0.0028873010625394  -0.0091283615807283
  -0.0000973147   -0.0018166991   -0.0136395745
  -0.0008667251    0.0013865747   -0.0002027498
   0.0005213782   -0.0010375626   -0.0007577665
   0.0008909862    0.0010281252   -0.0002852125
   0.0018972676    0.0008485066   -0.0018214351
   0.0006024500   -0.0004948276   -0.0012779339
  -0.0022593213    0.0021520856   -0.0017923872
  -0.0009033627   -0.0018393364   -0.0012394613
  -0.0009749808    0.0010414582   -0.0006079265
   0.0000911706   -0.0010102296   -0.0002380816
   0.0005383389    0.0067546693   -0.0030607177
  -0.0005352469   -0.0106835340   -0.0063455968
   0.0007067631   -0.0013155730   -0.0008924385
   0.0103767634    0.0018451860   -0.0067653583
  -0.0007359878   -0.0002848998   -0.0001702640
  -0.0064470428    0.0007593306   -0.0024033151
  -0.0040875616    0.0046296211    0.0810831027
  -0.0000564308   -0.0012076954    0.0006052322
   0.0006706255    0.0005940230    0.0009487032
   0.0002911086   -0.0008538788   -0.0010691975
  -0.0016626787   -0.0015668086   -0.0014178973
  -0.0005015153    0.0012330543   -0.0020381954
   0.0020005989   -0.0027348210   -0.0041469191
   0.0019511142    0.0013695823   -0.0118910560
   0.0002016598    0.0005051134    0.0018627584
  -0.0023942088   -0.0005572180    0.0000078477
  -0.0001407523    0.0031259654    0.0014937003
   0.0009229046   -0.0018702118   -0.0239378600

17   
  0.0028873010625394   0.0028873010625394  -0.0091283615807283
  -0.0003820849   -0.0003739280   -0.0133634621
  -0.0005909114    0.0007980078   -0.0004792621
   0.0008001654   -0.0005910431   -0.0004820842
   0.0006233307    0.0006213073   -0.0005616544
   0.0005515621    0.0005552594   -0.0015667902
   0.0019497449   -0.0009384583   -0.0015318055
  -0.0009328371    0.0019504177   -0.0015415756
  -0.0022313833   -0.0022437895   -0.0014898217
  -0.0009759033    0.0007054846   -0.0008433087
   0.0000893407   -0.0007365722    0.0000174987
   0.0005441543    0.0103755934   -0.0068254719
  -0.0005363437   -0.0064450804   -0.0025911245
   0.0007051298   -0.0009754737   -0.0008433453
   0.0103751198    0.0005445610   -0.0068254635
  -0.0007370103    0.0000897059    0.0000175356
  -0.0064453937   -0.0005360047   -0.0025911132
  -0.0041053197   -0.0041049308    0.0809111361
  -0.0000431012    0.0006856210    0.0007771176
   0.0006852881   -0.0000427642    0.0007771348
   0.0002792584    0.0002795925   -0.0008978383
  -0.0012036649   -0.0012033005   -0.0003656644
  -0.0009642147    0.0015404083   -0.0030905355
   0.0015400576   -0.0009638765   -0.0030905038
   0.0024192425    0.0024195765   -0.0129476792
   0.0003187773    0.0003180669    0.0011123398
  -0.0025055235   -0.0002494203    0.0007462900
  -0.0002518741   -0.0025049925    0.0007489090
   0.0010243945    0.0010260323   -0.0231794574

17   
 -0.0028873010625394  -0.0028873010625394   0.0091283615807283
   0.0003601798    0.0003685330    0.0106737301
   0.0006186328   -0.0008360469   -0.0015561712
  -0.0008338007    0.0006183148   -0.0015589914
  -0.0006221098   -0.0006243413   -0.0015610474
  -0.0006365431   -0.0006330642    0.0037309865
  -0.0019631551    0.0009571914    0.0035829897
   0.0009625960   -0.0019626202    0.0035728877
   0.0022939158    0.0022814652    0.0034238781
   0.0009889992   -0.0007081567    0.0008278286
  -0.0000885168    0.0007412561   -0.0000183641
  -0.0005284311   -0.0104948718    0.0068664850
   0.0005441668    0.0064710301    0.0025537742
  -0.0007087231    0.0009893290    0.0008278261
  -0.0104952790   -0.0005281416    0.0068664336
   0.0007412366   -0.0000882155   -0.0000184059
   0.0064707495    0.0005444798    0.0025538028
   0.0040990117    0.0040993096   -0.0834631047
   0.0000421687   -0.0006852034   -0.0019475335
  -0.0006855357    0.0000424613   -0.0019475143
  -0.0002782149   -0.0002779078   -0.0002615976
   0.0012047157    0.0012049945    0.0015361762
   0.0009455633   -0.0015384391    0.0042562130
  -0.0015387201    0.0009458213    0.0042561635
  -0.0024313653   -0.0024311044    0.0142032921
  -0.0003122115   -0.0003117090   -0.0011295923
   0.0025254893    0.0002471988   -0.0007210018
   0.0002452163    0.0025270971   -0.0007190964
  -0.0009200352   -0.0009186601    0.0251699534

25   
 -0.0028873010625394   0.0028873010625394   0.0091283615807283
   0.0065928749    0.0042675332   -0.0013919633
   0.0037617126   -0.0036836991   -0.0040022278
  -0.0072170274    0.0071323043    0.0012874963
  -0.0043110377   -0.0065404330    0.0090083368
  -0.0042665622   -0.0065031238    0.0112417328
  -0.0070813524    0.0070114027    0.0032851022
   0.0037216971   -0.0036373773   -0.0019491754
   0.0065529232    0.0042081499    0.0005492948
   0.0003987304    0.0118202520    0.0013730587
   0.0003764056    0.0119688696    0.0014504643
   0.0017538557   -0.0002661860   -0.0000988339
   0.0017554071   -0.0002746311   -0.0000996447
  -0.0119726788    0.0006564748    0.0014735530
   0.0002750073   -0.0027879306   -0.0001190796
  -0.0118159394    0.0006293327    0.0013941260
   0.0002653824   -0.0027851705   -0.0001200188
  -0.0010561388   -0.0013037073   -0.0024896005
   0.0016058736    0.0014319783   -0.0011767027
   0.0009566487   -0.0040070326   -0.0017670552
  -0.0001589977    0.0025523190    0.0234237516
  -0.0001489556    0.0025020314    0.0265108901
   0.0009309904   -0.0040069646   -0.0005885158
   0.0016158863    0.0014270596    0.0000008169
  -0.0010338957   -0.0012759292   -0.0013194193
   0.0386763490   -0.0390465370   -0.0696953798
  -0.0010024558    0.0198197033    0.0008990912
  -0.0193864141    0.0006136871    0.0006506440
   0.0002117114    0.0000776243    0.0022692581

25   
  0.0028873010625394   0.0028873010625394  -0.0091283615807283
  -0.0036563921   -0.0036469560    0.0020685096
  -0.0066236335    0.0041820621   -0.0006710611
   0.0041842037   -0.0066240842   -0.0006739045
   0.0071609667    0.0071587864   -0.0138458632
   0.0072506425    0.0072541560   -0.0116589107
   0.0042714758   -0.0066934061    0.0013671883
  -0.0066876833    0.0042721404    0.0013569620
  -0.0036567817   -0.0036691581    0.0040349594
  -0.0003992671    0.0118169164   -0.0013753451
  -0.0003752270    0.0119721533   -0.0014553737
  -0.0017568725   -0.0002659531    0.0000952348
  -0.0017543816   -0.0002746669    0.0000941998
   0.0118167173   -0.0003990104   -0.0013753396
  -0.0002662003   -0.0017565511    0.0000952311
   0.0119718621   -0.0003749991   -0.0014553850
  -0.0002747819   -0.0017541276    0.0000942184
   0.0011600771    0.0011603295    0.0010223269
  -0.0017156398   -0.0010274156    0.0002907473
  -0.0010276425   -0.0017154178    0.0002907636
   0.0002448732    0.0002450753   -0.0262192611
   0.0002562320    0.0002564472   -0.0231311668
  -0.0010510872   -0.0017054691    0.0014691296
  -0.0017056836   -0.0010508783    0.0014691260
   0.0011664986    0.0011667173    0.0021907827
  -0.0385642519   -0.0385624381    0.0695681782
   0.0008959551    0.0192882654   -0.0007640105
   0.0192867381    0.0008975906   -0.0007617548
  -0.0001507162   -0.0001501084   -0.0021201817
