calculator: aims
length_unit: angstrom
nqpoint: 459    
npath: 9      
segment_nqpoint:
- 51
- 51
- 51
- 51
- 51
- 51
- 51
- 51
- 51
labels:
- [ 'G', 'X' ]
- [ 'X', 'M' ]
- [ 'M', 'G' ]
- [ 'G', 'Z' ]
- [ 'Z', 'R' ]
- [ 'R', 'A' ]
- [ 'A', 'Z:' ]
- [ 'X', 'R:' ]
- [ 'M', 'A' ]
reciprocal_lattice:
- [   0.14736205,   0.00000000,   0.00000000 ] # a*
- [   0.00000000,   0.14736205,   0.00000000 ] # b*
- [   0.00000000,   0.00000000,   0.24424285 ] # c*
natom: 8      
lattice:
- [     6.786007469999999,     0.000000000000000,     0.000000000000000 ] # a
- [     0.000000000000000,     6.786007469999999,     0.000000000000000 ] # b
- [     0.000000000000000,     0.000000000000000,     4.094285749999999 ] # c
points:
- symbol: Ba # 1
  coordinates: [  0.000000000000000,  0.000000000000000,  0.000000000000000 ]
  mass: 137.327000
- symbol: Ba # 2
  coordinates: [  0.500000000000000,  0.500000000000000,  0.000000000000000 ]
  mass: 137.327000
- symbol: S  # 3
  coordinates: [  0.000000000000000,  0.500000000000000,  0.207084200000000 ]
  mass: 32.065000
- symbol: S  # 4
  coordinates: [  0.500000000000000,  0.000000000000000,  0.792915800000000 ]
  mass: 32.065000
- symbol: S  # 5
  coordinates: [  0.182239860000000,  0.682239860000000,  0.483408460000000 ]
  mass: 32.065000
- symbol: S  # 6
  coordinates: [  0.817760140000000,  0.317760140000000,  0.483408460000000 ]
  mass: 32.065000
- symbol: S  # 7
  coordinates: [  0.682239860000000,  0.817760140000000,  0.516591540000000 ]
  mass: 32.065000
- symbol: S  # 8
  coordinates: [  0.317760140000000,  0.182239860000000,  0.516591540000000 ]
  mass: 32.065000

phonon:
- q-position: [    0.0000000,    0.0000000,    0.0000000 ]
  distance:    0.0000000
  band:
  - # 1
    frequency:   -0.0000001588
  - # 2
    frequency:    0.0000000281
  - # 3
    frequency:    0.0000001231
  - # 4
    frequency:    2.3752198614
  - # 5
    frequency:    2.4531196041
  - # 6
    frequency:    2.4531196041
  - # 7
    frequency:    2.9435234612
  - # 8
    frequency:    2.9435234612
  - # 9
    frequency:    3.1022893519
  - # 10
    frequency:    3.7400051397
  - # 11
    frequency:    4.6179345455
  - # 12
    frequency:    4.6179345455
  - # 13
    frequency:    4.9325009447
  - # 14
    frequency:    4.9325009447
  - # 15
    frequency:    5.8282687905
  - # 16
    frequency:    6.1930316959
  - # 17
    frequency:    6.1930316959
  - # 18
    frequency:    6.3134033995
  - # 19
    frequency:    6.5738124297
  - # 20
    frequency:    6.5782010004
  - # 21
    frequency:   13.1497828305
  - # 22
    frequency:   13.3226273740
  - # 23
    frequency:   13.7522382874
  - # 24
    frequency:   13.7522382874

- q-position: [    0.0000000,    0.0100000,    0.0000000 ]
  distance:    0.0014736
  band:
  - # 1
    frequency:    0.0142151738
  - # 2
    frequency:    0.0585942034
  - # 3
    frequency:    0.0616737399
  - # 4
    frequency:    2.3749592919
  - # 5
    frequency:    2.4532297095
  - # 6
    frequency:    2.4532428997
  - # 7
    frequency:    2.9436083810
  - # 8
    frequency:    2.9438467561
  - # 9
    frequency:    3.1024463894
  - # 10
    frequency:    3.7399403345
  - # 11
    frequency:    4.6178392691
  - # 12
    frequency:    4.6181499133
  - # 13
    frequency:    4.9321793164
  - # 14
    frequency:    4.9324594877
  - # 15
    frequency:    5.8282510628
  - # 16
    frequency:    6.1925718600
  - # 17
    frequency:    6.1931482257
  - # 18
    frequency:    6.3136624722
  - # 19
    frequency:    6.5739048408
  - # 20
    frequency:    6.5782959989
  - # 21
    frequency:   13.1498233847
  - # 22
    frequency:   13.3225660605
  - # 23
    frequency:   13.7522803738
  - # 24
    frequency:   13.7523695958

- q-position: [    0.0000000,    0.0200000,    0.0000000 ]
  distance:    0.0029472
  band:
  - # 1
    frequency:    0.0629734773
  - # 2
    frequency:    0.1028102904
  - # 3
    frequency:    0.1232887416
  - # 4
    frequency:    2.3741811297
  - # 5
    frequency:    2.4535491421
  - # 6
    frequency:    2.4536123900
  - # 7
    frequency:    2.9438621292
  - # 8
    frequency:    2.9448147491
  - # 9
    frequency:    3.1029159751
  - # 10
    frequency:    3.7397453432
  - # 11
    frequency:    4.6175528423
  - # 12
    frequency:    4.6187960991
  - # 13
    frequency:    4.9312185099
  - # 14
    frequency:    4.9323355043
  - # 15
    frequency:    5.8281987619
  - # 16
    frequency:    6.1912054625
  - # 17
    frequency:    6.1934981052
  - # 18
    frequency:    6.3144283419
  - # 19
    frequency:    6.5741809354
  - # 20
    frequency:    6.5785799028
  - # 21
    frequency:   13.1499449972
  - # 22
    frequency:   13.3223823566
  - # 23
    frequency:   13.7524067290
  - # 24
    frequency:   13.7527627264

- q-position: [    0.0000000,    0.0300000,    0.0000000 ]
  distance:    0.0044209
  band:
  - # 1
    frequency:    0.1059097063
  - # 2
    frequency:    0.1465147403
  - # 3
    frequency:    0.1847868592
  - # 4
    frequency:    2.3728953041
  - # 5
    frequency:    2.4540463104
  - # 6
    frequency:    2.4542268866
  - # 7
    frequency:    2.9442816722
  - # 8
    frequency:    2.9464216474
  - # 9
    frequency:    3.1036935361
  - # 10
    frequency:    3.7394184410
  - # 11
    frequency:    4.6170734826
  - # 12
    frequency:    4.6198732918
  - # 13
    frequency:    4.9296307161
  - # 14
    frequency:    4.9321301118
  - # 15
    frequency:    5.8281145293
  - # 16
    frequency:    6.1889698037
  - # 17
    frequency:    6.1940822052
  - # 18
    frequency:    6.3156689678
  - # 19
    frequency:    6.5746373255
  - # 20
    frequency:    6.5790494590
  - # 21
    frequency:   13.1501475168
  - # 22
    frequency:   13.3220769690
  - # 23
    frequency:   13.7526176394
  - # 24
    frequency:   13.7534153033

- q-position: [    0.0000000,    0.0400000,    0.0000000 ]
  distance:    0.0058945
  band:
  - # 1
    frequency:    0.1479389625
  - # 2
    frequency:    0.1901684385
  - # 3
    frequency:    0.2461111092
  - # 4
    frequency:    2.3711162474
  - # 5
    frequency:    2.4546718203
  - # 6
    frequency:    2.4550844144
  - # 7
    frequency:    2.9448619554
  - # 8
    frequency:    2.9486574209
  - # 9
    frequency:    3.1047714778
  - # 10
    frequency:    3.7389567637
  - # 11
    frequency:    4.6163982596
  - # 12
    frequency:    4.6213816157
  - # 13
    frequency:    4.9274361051
  - # 14
    frequency:    4.9318450219
  - # 15
    frequency:    5.8280027498
  - # 16
    frequency:    6.1859210235
  - # 17
    frequency:    6.1949019755
  - # 18
    frequency:    6.3173368943
  - # 19
    frequency:    6.5752684584
  - # 20
    frequency:    6.5796993170
  - # 21
    frequency:   13.1504306906
  - # 22
    frequency:   13.3216510621
  - # 23
    frequency:   13.7529135758
  - # 24
    frequency:   13.7543233898

- q-position: [    0.0000000,    0.0500000,    0.0000000 ]
  distance:    0.0073681
  band:
  - # 1
    frequency:    0.1894972544
  - # 2
    frequency:    0.2338499631
  - # 3
    frequency:    0.3072061973
  - # 4
    frequency:    2.3688604458
  - # 5
    frequency:    2.4553625538
  - # 6
    frequency:    2.4561822185
  - # 7
    frequency:    2.9455959057
  - # 8
    frequency:    2.9515072897
  - # 9
    frequency:    3.1061392383
  - # 10
    frequency:    3.7383563220
  - # 11
    frequency:    4.6155231598
  - # 12
    frequency:    4.6233208513
  - # 13
    frequency:    4.9246626020
  - # 14
    frequency:    4.9314823204
  - # 15
    frequency:    5.8278695232
  - # 16
    frequency:    6.1821271917
  - # 17
    frequency:    6.1959594438
  - # 18
    frequency:    6.3193760398
  - # 19
    frequency:    6.5760667519
  - # 20
    frequency:    6.5805221348
  - # 21
    frequency:   13.1507941627
  - # 22
    frequency:   13.3211062388
  - # 23
    frequency:   13.7532951835
  - # 24
    frequency:   13.7554815233

- q-position: [    0.0000000,    0.0600000,    0.0000000 ]
  distance:    0.0088417
  band:
  - # 1
    frequency:    0.2307142626
  - # 2
    frequency:    0.2775573411
  - # 3
    frequency:    0.3680189829
  - # 4
    frequency:    2.3661440803
  - # 5
    frequency:    2.4560461464
  - # 6
    frequency:    2.4575167729
  - # 7
    frequency:    2.9464744378
  - # 8
    frequency:    2.9549511003
  - # 9
    frequency:    3.1077833892
  - # 10
    frequency:    3.7376120235
  - # 11
    frequency:    4.6144431891
  - # 12
    frequency:    4.6256900571
  - # 13
    frequency:    4.9213455657
  - # 14
    frequency:    4.9310441709
  - # 15
    frequency:    5.8277226195
  - # 16
    frequency:    6.1776616815
  - # 17
    frequency:    6.1972572104
  - # 18
    frequency:    6.3217281576
  - # 19
    frequency:    6.5770227760
  - # 20
    frequency:    6.5815087207
  - # 21
    frequency:   13.1512374724
  - # 22
    frequency:   13.3204445154
  - # 23
    frequency:   13.7537632682
  - # 24
    frequency:   13.7568827620

- q-position: [    0.0000000,    0.0700000,    0.0000000 ]
  distance:    0.0103153
  band:
  - # 1
    frequency:    0.2716480843
  - # 2
    frequency:    0.3212651112
  - # 3
    frequency:    0.4284988663
  - # 4
    frequency:    2.3629812133
  - # 5
    frequency:    2.4566452596
  - # 6
    frequency:    2.4590837901
  - # 7
    frequency:    2.9474864653
  - # 8
    frequency:    2.9589626740
  - # 9
    frequency:    3.1096878119
  - # 10
    frequency:    3.7367177005
  - # 11
    frequency:    4.6131525239
  - # 12
    frequency:    4.6284871079
  - # 13
    frequency:    4.9175273666
  - # 14
    frequency:    4.9305324519
  - # 15
    frequency:    5.8275714151
  - # 16
    frequency:    6.1725980130
  - # 17
    frequency:    6.1987984406
  - # 18
    frequency:    6.3243377893
  - # 19
    frequency:    6.5781254718
  - # 20
    frequency:    6.5826482103
  - # 21
    frequency:   13.1517600522
  - # 22
    frequency:   13.3196682893
  - # 23
    frequency:   13.7543187782
  - # 24
    frequency:   13.7585187442

- q-position: [    0.0000000,    0.0800000,    0.0000000 ]
  distance:    0.0117890
  band:
  - # 1
    frequency:    0.3123303308
  - # 2
    frequency:    0.3649410967
  - # 3
    frequency:    0.4885980863
  - # 4
    frequency:    2.3593826920
  - # 5
    frequency:    2.4570813101
  - # 6
    frequency:    2.4608782284
  - # 7
    frequency:    2.9486189193
  - # 8
    frequency:    2.9635092066
  - # 9
    frequency:    3.1118339813
  - # 10
    frequency:    3.7356661450
  - # 11
    frequency:    4.6116447220
  - # 12
    frequency:    4.6317081671
  - # 13
    frequency:    4.9132568539
  - # 14
    frequency:    4.9299483425
  - # 15
    frequency:    5.8274268043
  - # 16
    frequency:    6.1670065276
  - # 17
    frequency:    6.2005868505
  - # 18
    frequency:    6.3271553506
  - # 19
    frequency:    6.5793623996
  - # 20
    frequency:    6.5839282698
  - # 21
    frequency:   13.1523612256
  - # 22
    frequency:   13.3187803041
  - # 23
    frequency:   13.7549627830
  - # 24
    frequency:   13.7603797570

- q-position: [    0.0000000,    0.0900000,    0.0000000 ]
  distance:    0.0132626
  band:
  - # 1
    frequency:    0.3527793305
  - # 2
    frequency:    0.4085523903
  - # 3
    frequency:    0.5482719222
  - # 4
    frequency:    2.3553557100
  - # 5
    frequency:    2.4572775364
  - # 6
    frequency:    2.4628942964
  - # 7
    frequency:    2.9498567772
  - # 8
    frequency:    2.9685507937
  - # 9
    frequency:    3.1142014027
  - # 10
    frequency:    3.7344491514
  - # 11
    frequency:    4.6099130112
  - # 12
    frequency:    4.6353471196
  - # 13
    frequency:    4.9085887047
  - # 14
    frequency:    4.9292918712
  - # 15
    frequency:    5.8273010802
  - # 16
    frequency:    6.1609526800
  - # 17
    frequency:    6.2026266837
  - # 18
    frequency:    6.3301385691
  - # 19
    frequency:    6.5807200058
  - # 20
    frequency:    6.5853353236
  - # 21
    frequency:   13.1530402051
  - # 22
    frequency:   13.3177836100
  - # 23
    frequency:   13.7556964470
  - # 24
    frequency:   13.7624548145

- q-position: [    0.0000000,    0.1000000,    0.0000000 ]
  distance:    0.0147362
  band:
  - # 1
    frequency:    0.3930052971
  - # 2
    frequency:    0.4520675707
  - # 3
    frequency:    0.6074787956
  - # 4
    frequency:    2.3509038551
  - # 5
    frequency:    2.4571614118
  - # 6
    frequency:    2.4651254529
  - # 7
    frequency:    2.9511831056
  - # 8
    frequency:    2.9740401260
  - # 9
    frequency:    3.1167682478
  - # 10
    frequency:    3.7330575673
  - # 11
    frequency:    4.6079506690
  - # 12
    frequency:    4.6393949947
  - # 13
    frequency:    4.9035826442
  - # 14
    frequency:    4.9285614449
  - # 15
    frequency:    5.8272077819
  - # 16
    frequency:    6.1544964938
  - # 17
    frequency:    6.2049226767
  - # 18
    frequency:    6.3332527336
  - # 19
    frequency:    6.5821839000
  - # 20
    frequency:    6.5868547962
  - # 21
    frequency:   13.1537960908
  - # 22
    frequency:   13.3166815230
  - # 23
    frequency:   13.7565210002
  - # 24
    frequency:   13.7647317432

- q-position: [    0.0000000,    0.1100000,    0.0000000 ]
  distance:    0.0162098
  band:
  - # 1
    frequency:    0.4330129014
  - # 2
    frequency:    0.4954574128
  - # 3
    frequency:    0.6661802741
  - # 4
    frequency:    2.3460274563
  - # 5
    frequency:    2.4566664542
  - # 6
    frequency:    2.4675643985
  - # 7
    frequency:    2.9525791187
  - # 8
    frequency:    2.9799223629
  - # 9
    frequency:    3.1195122438
  - # 10
    frequency:    3.7314813531
  - # 11
    frequency:    4.6057515087
  - # 12
    frequency:    4.6438394128
  - # 13
    frequency:    4.8983025303
  - # 14
    frequency:    4.9277533783
  - # 15
    frequency:    5.8271615006
  - # 16
    frequency:    6.1476927239
  - # 17
    frequency:    6.2074800080
  - # 18
    frequency:    6.3364702150
  - # 19
    frequency:    6.5837391318
  - # 20
    frequency:    6.5884713656
  - # 21
    frequency:   13.1546278682
  - # 22
    frequency:   13.3154775836
  - # 23
    frequency:   13.7574377047
  - # 24
    frequency:   13.7671972742

- q-position: [    0.0000000,    0.1200000,    0.0000000 ]
  distance:    0.0176834
  band:
  - # 1
    frequency:    0.4728028090
  - # 2
    frequency:    0.5386949675
  - # 3
    frequency:    0.7243409819
  - # 4
    frequency:    2.3407240729
  - # 5
    frequency:    2.4557334903
  - # 6
    frequency:    2.4702030575
  - # 7
    frequency:    2.9540242584
  - # 8
    frequency:    2.9861351509
  - # 9
    frequency:    3.1224118657
  - # 10
    frequency:    3.7297096509
  - # 11
    frequency:    4.6033104810
  - # 12
    frequency:    4.6486640974
  - # 13
    frequency:    4.8928152977
  - # 14
    frequency:    4.9268614427
  - # 15
    frequency:    5.8271776420
  - # 16
    frequency:    6.1405913747
  - # 17
    frequency:    6.2103042271
  - # 18
    frequency:    6.3397696158
  - # 19
    frequency:    6.5853704607
  - # 20
    frequency:    6.5901692191
  - # 21
    frequency:   13.1555344088
  - # 22
    frequency:   13.3141755151
  - # 23
    frequency:   13.7584478179
  - # 24
    frequency:   13.7698371388

- q-position: [    0.0000000,    0.1300000,    0.0000000 ]
  distance:    0.0191571
  band:
  - # 1
    frequency:    0.5123727136
  - # 2
    frequency:    0.5817553859
  - # 3
    frequency:    0.7819284226
  - # 4
    frequency:    2.3349890224
  - # 5
    frequency:    2.4543114270
  - # 6
    frequency:    2.4730325472
  - # 7
    frequency:    2.9554962969
  - # 8
    frequency:    2.9926087142
  - # 9
    frequency:    3.1254478732
  - # 10
    frequency:    3.7277308638
  - # 11
    frequency:    4.6006243953
  - # 12
    frequency:    4.6538484884
  - # 13
    frequency:    4.8871897642
  - # 14
    frequency:    4.9258764558
  - # 15
    frequency:    5.8272721419
  - # 16
    frequency:    6.1332383386
  - # 17
    frequency:    6.2134011576
  - # 18
    frequency:    6.3431347827
  - # 19
    frequency:    6.5870626126
  - # 20
    frequency:    6.5919323068
  - # 21
    frequency:   13.1565144694
  - # 22
    frequency:   13.3127791843
  - # 23
    frequency:   13.7595525516
  - # 24
    frequency:   13.7726361695

- q-position: [    0.0000000,    0.1400000,    0.0000000 ]
  distance:    0.0206307
  band:
  - # 1
    frequency:    0.5517180823
  - # 2
    frequency:    0.6246156554
  - # 3
    frequency:    0.8389127254
  - # 4
    frequency:    2.3288158839
  - # 5
    frequency:    2.4523575901
  - # 6
    frequency:    2.4760431328
  - # 7
    frequency:    2.9569714676
  - # 8
    frequency:    2.9992659222
  - # 9
    frequency:    3.1286052090
  - # 10
    frequency:    3.7255327475
  - # 11
    frequency:    4.5976927497
  - # 12
    frequency:    4.6593674979
  - # 13
    frequency:    4.8814953117
  - # 14
    frequency:    4.9247859346
  - # 15
    frequency:    5.8274611356
  - # 16
    frequency:    6.1256760245
  - # 17
    frequency:    6.2167767713
  - # 18
    frequency:    6.3465538230
  - # 19
    frequency:    6.5888005153
  - # 20
    frequency:    6.5937445869
  - # 21
    frequency:   13.1575666940
  - # 22
    frequency:   13.3112925639
  - # 23
    frequency:   13.7607530287
  - # 24
    frequency:   13.7755784017

- q-position: [    0.0000000,    0.1500000,    0.0000000 ]
  distance:    0.0221043
  band:
  - # 1
    frequency:    0.5908327148
  - # 2
    frequency:    0.6672543200
  - # 3
    frequency:    0.8952663225
  - # 4
    frequency:    2.3221969506
  - # 5
    frequency:    2.4498376925
  - # 6
    frequency:    2.4792241630
  - # 7
    frequency:    2.9584246272
  - # 8
    frequency:    3.0060222456
  - # 9
    frequency:    3.1318752353
  - # 10
    frequency:    3.7231025124
  - # 11
    frequency:    4.5945186478
  - # 12
    frequency:    4.6651914383
  - # 13
    frequency:    4.8758004701
  - # 14
    frequency:    4.9235738334
  - # 15
    frequency:    5.8277605813
  - # 16
    frequency:    6.1179439056
  - # 17
    frequency:    6.2204370256
  - # 18
    frequency:    6.3500181905
  - # 19
    frequency:    6.5905695118
  - # 20
    frequency:    6.5955902578
  - # 21
    frequency:   13.1586896165
  - # 22
    frequency:   13.3097196983
  - # 23
    frequency:   13.7620502364
  - # 24
    frequency:   13.7786471785

- q-position: [    0.0000000,    0.1600000,    0.0000000 ]
  distance:    0.0235779
  band:
  - # 1
    frequency:    0.6297091728
  - # 2
    frequency:    0.7096512149
  - # 3
    frequency:    0.9509635686
  - # 4
    frequency:    2.3151236218
  - # 5
    frequency:    2.4467255118
  - # 6
    frequency:    2.4825639861
  - # 7
    frequency:    2.9598294522
  - # 8
    frequency:    3.0127855636
  - # 9
    frequency:    3.1352582124
  - # 10
    frequency:    3.7204269406
  - # 11
    frequency:    4.5911097602
  - # 12
    frequency:    4.6712861489
  - # 13
    frequency:    4.8701714468
  - # 14
    frequency:    4.9222203896
  - # 15
    frequency:    5.8281858465
  - # 16
    frequency:    6.1100789636
  - # 17
    frequency:    6.2243876620
  - # 18
    frequency:    6.3535218723
  - # 19
    frequency:    6.5923555470
  - # 20
    frequency:    6.5974539725
  - # 21
    frequency:   13.1598816641
  - # 22
    frequency:   13.3080646718
  - # 23
    frequency:   13.7634449769
  - # 24
    frequency:   13.7818252549

- q-position: [    0.0000000,    0.1700000,    0.0000000 ]
  distance:    0.0250515
  band:
  - # 1
    frequency:    0.6683391170
  - # 2
    frequency:    0.7517872252
  - # 3
    frequency:    1.0059803092
  - # 4
    frequency:    2.3075867386
  - # 5
    frequency:    2.4430023591
  - # 6
    frequency:    2.4860498412
  - # 7
    frequency:    2.9611586750
  - # 8
    frequency:    3.0194558911
  - # 9
    frequency:    3.1387658076
  - # 10
    frequency:    3.7174925155
  - # 11
    frequency:    4.5874792718
  - # 12
    frequency:    4.6776133282
  - # 13
    frequency:    4.8646706619
  - # 14
    frequency:    4.9207020993
  - # 15
    frequency:    5.8287512644
  - # 16
    frequency:    6.1021160260
  - # 17
    frequency:    6.2286339623
  - # 18
    frequency:    6.3570606792
  - # 19
    frequency:    6.5941453272
  - # 20
    frequency:    6.5993210310
  - # 21
    frequency:   13.1611411636
  - # 22
    frequency:   13.3063315818
  - # 23
    frequency:   13.7649378165
  - # 24
    frequency:   13.7850949033

- q-position: [    0.0000000,    0.1800000,    0.0000000 ]
  distance:    0.0265252
  band:
  - # 1
    frequency:    0.7067135748
  - # 2
    frequency:    0.7936440733
  - # 3
    frequency:    1.0602934043
  - # 4
    frequency:    2.2995768717
  - # 5
    frequency:    2.4386564242
  - # 6
    frequency:    2.4896677226
  - # 7
    frequency:    2.9623843630
  - # 8
    frequency:    3.0259252696
  - # 9
    frequency:    3.1424232650
  - # 10
    frequency:    3.7142855675
  - # 11
    frequency:    4.5836467422
  - # 12
    frequency:    4.6841310699
  - # 13
    frequency:    4.8593553629
  - # 14
    frequency:    4.9189918427
  - # 15
    frequency:    5.8294696773
  - # 16
    frequency:    6.0940880058
  - # 17
    frequency:    6.2331804587
  - # 18
    frequency:    6.3606316339
  - # 19
    frequency:    6.5959264524
  - # 20
    frequency:    6.6011775498
  - # 21
    frequency:   13.1624663474
  - # 22
    frequency:   13.3045245145
  - # 23
    frequency:   13.7665290324
  - # 24
    frequency:   13.7884380185

- q-position: [    0.0000000,    0.1900000,    0.0000000 ]
  distance:    0.0279988
  band:
  - # 1
    frequency:    0.7448231550
  - # 2
    frequency:    0.8352041313
  - # 3
    frequency:    1.1138802089
  - # 4
    frequency:    2.2910845717
  - # 5
    frequency:    2.4336820798
  - # 6
    frequency:    2.4934022135
  - # 7
    frequency:    2.9634782439
  - # 8
    frequency:    3.0320782886
  - # 9
    frequency:    3.1462706608
  - # 10
    frequency:    3.7107924336
  - # 11
    frequency:    4.5796387969
  - # 12
    frequency:    4.6907945777
  - # 13
    frequency:    4.8542764008
  - # 14
    frequency:    4.9170591757
  - # 15
    frequency:    5.8303519842
  - # 16
    frequency:    6.0860260576
  - # 17
    frequency:    6.2380306004
  - # 18
    frequency:    6.3642324452
  - # 19
    frequency:    6.5976875207
  - # 20
    frequency:    6.6030106040
  - # 21
    frequency:   13.1638553624
  - # 22
    frequency:   13.3026475250
  - # 23
    frequency:   13.7682185598
  - # 24
    frequency:   13.7918362215

- q-position: [    0.0000000,    0.2000000,    0.0000000 ]
  distance:    0.0294724
  band:
  - # 1
    frequency:    0.7826582222
  - # 2
    frequency:    0.8764502589
  - # 3
    frequency:    1.1667180087
  - # 4
    frequency:    2.2821005914
  - # 5
    frequency:    2.4280792135
  - # 6
    frequency:    2.4972362850
  - # 7
    frequency:    2.9644120840
  - # 8
    frequency:    3.0377939150
  - # 9
    frequency:    3.1503624895
  - # 10
    frequency:    3.7069996328
  - # 11
    frequency:    4.5754895713
  - # 12
    frequency:    4.6975570214
  - # 13
    frequency:    4.8494772434
  - # 14
    frequency:    4.9148708010
  - # 15
    frequency:    5.8314067154
  - # 16
    frequency:    6.0779596665
  - # 17
    frequency:    6.2431863796
  - # 18
    frequency:    6.3678610568
  - # 19
    frequency:    6.5994182077
  - # 20
    frequency:    6.6048083428
  - # 21
    frequency:   13.1653062798
  - # 22
    frequency:   13.3007046205
  - # 23
    frequency:   13.7700059373
  - # 24
    frequency:   13.7952709634

- q-position: [    0.0000000,    0.2100000,    0.0000000 ]
  distance:    0.0309460
  band:
  - # 1
    frequency:    0.8202090370
  - # 2
    frequency:    0.9173656647
  - # 3
    frequency:    1.2187834019
  - # 4
    frequency:    2.2726160904
  - # 5
    frequency:    2.4218526512
  - # 6
    frequency:    2.5011510563
  - # 7
    frequency:    2.9651581213
  - # 8
    frequency:    3.0429493681
  - # 9
    frequency:    3.1547648017
  - # 10
    frequency:    3.7028940571
  - # 11
    frequency:    4.5712408422
  - # 12
    frequency:    4.7043704782
  - # 13
    frequency:    4.8449932917
  - # 14
    frequency:    4.9123912247
  - # 15
    frequency:    5.8326396602
  - # 16
    frequency:    6.0699166837
  - # 17
    frequency:    6.2486479227
  - # 18
    frequency:    6.3715152570
  - # 19
    frequency:    6.6011093213
  - # 20
    frequency:    6.6065600764
  - # 21
    frequency:   13.1668171059
  - # 22
    frequency:   13.2986997469
  - # 23
    frequency:   13.7718902537
  - # 24
    frequency:   13.7987236275

- q-position: [    0.0000000,    0.2200000,    0.0000000 ]
  distance:    0.0324197
  band:
  - # 1
    frequency:    0.8574658711
  - # 2
    frequency:    0.9579337889
  - # 3
    frequency:    1.2700516106
  - # 4
    frequency:    2.2626228303
  - # 5
    frequency:    2.4150117212
  - # 6
    frequency:    2.5051255115
  - # 7
    frequency:    2.9656895605
  - # 8
    frequency:    3.0474264678
  - # 9
    frequency:    3.1595494557
  - # 10
    frequency:    3.6984631747
  - # 11
    frequency:    4.5669418075
  - # 12
    frequency:    4.7111868958
  - # 13
    frequency:    4.8408515369
  - # 14
    frequency:    4.9095835971
  - # 15
    frequency:    5.8340535727
  - # 16
    frequency:    6.0619233224
  - # 17
    frequency:    6.2544130595
  - # 18
    frequency:    6.3751923423
  - # 19
    frequency:    6.6027528344
  - # 20
    frequency:    6.6082563361
  - # 21
    frequency:   13.1683857942
  - # 22
    frequency:   13.2966367785
  - # 23
    frequency:   13.7738700962
  - # 24
    frequency:   13.8021756308

- q-position: [    0.0000000,    0.2300000,    0.0000000 ]
  distance:    0.0338933
  band:
  - # 1
    frequency:    0.8944190979
  - # 2
    frequency:    0.9981382076
  - # 3
    frequency:    1.3204956965
  - # 4
    frequency:    2.2521133694
  - # 5
    frequency:    2.4075700044
  - # 6
    frequency:    2.5091361695
  - # 7
    frequency:    2.9659811339
  - # 8
    frequency:    3.0511200704
  - # 9
    frequency:    3.1647858859
  - # 10
    frequency:    3.6936952456
  - # 11
    frequency:    4.5626485049
  - # 12
    frequency:    4.7179590025
  - # 13
    frequency:    4.8370705660
  - # 14
    frequency:    4.9064107302
  - # 15
    frequency:    5.8356479821
  - # 16
    frequency:    6.0540041273
  - # 17
    frequency:    6.2604768832
  - # 18
    frequency:    6.3788888250
  - # 19
    frequency:    6.6043418978
  - # 20
    frequency:    6.6098889060
  - # 21
    frequency:   13.1700102592
  - # 22
    frequency:   13.2945195098
  - # 23
    frequency:   13.7759435006
  - # 24
    frequency:   13.8056085237

- q-position: [    0.0000000,    0.2400000,    0.0000000 ]
  distance:    0.0353669
  band:
  - # 1
    frequency:    0.9310592643
  - # 2
    frequency:    1.0379625570
  - # 3
    frequency:    1.3700856390
  - # 4
    frequency:    2.2410812668
  - # 5
    frequency:    2.3995453154
  - # 6
    frequency:    2.5131566996
  - # 7
    frequency:    2.9660097331
  - # 8
    frequency:    3.0539470558
  - # 9
    frequency:    3.1705319646
  - # 10
    frequency:    3.6885795460
  - # 11
    frequency:    4.5584228975
  - # 12
    frequency:    4.7246410913
  - # 13
    frequency:    4.8336608901
  - # 14
    frequency:    4.9028362779
  - # 15
    frequency:    5.8374191260
  - # 16
    frequency:    6.0461819262
  - # 17
    frequency:    6.2668313225
  - # 18
    frequency:    6.3826001799
  - # 19
    frequency:    6.6058708344
  - # 20
    frequency:    6.6114508305
  - # 21
    frequency:   13.1716883894
  - # 22
    frequency:   13.2923516496
  - # 23
    frequency:   13.7781079044
  - # 24
    frequency:   13.8090040885

- q-position: [    0.0000000,    0.2500000,    0.0000000 ]
  distance:    0.0368405
  band:
  - # 1
    frequency:    0.9673771442
  - # 2
    frequency:    1.0773904772
  - # 3
    frequency:    1.4187872152
  - # 4
    frequency:    2.2295213105
  - # 5
    frequency:    2.3909599616
  - # 6
    frequency:    2.5171574811
  - # 7
    frequency:    2.9657551162
  - # 8
    frequency:    3.0558534918
  - # 9
    frequency:    3.1768263892
  - # 10
    frequency:    3.6831065962
  - # 11
    frequency:    4.5543316786
  - # 12
    frequency:    4.7311896014
  - # 13
    frequency:    4.8306255441
  - # 14
    frequency:    4.8988260650
  - # 15
    frequency:    5.8393600232
  - # 16
    frequency:    6.0384777728
  - # 17
    frequency:    6.2734647462
  - # 18
    frequency:    6.3863206260
  - # 19
    frequency:    6.6073351186
  - # 20
    frequency:    6.6129363975
  - # 21
    frequency:   13.1734180619
  - # 22
    frequency:   13.2901368176
  - # 23
    frequency:   13.7803601040
  - # 24
    frequency:   13.8123444358

- q-position: [    0.0000000,    0.2600000,    0.0000000 ]
  distance:    0.0383141
  band:
  - # 1
    frequency:    1.0033637771
  - # 2
    frequency:    1.1164055739
  - # 3
    frequency:    1.4665605928
  - # 4
    frequency:    2.2174297858
  - # 5
    frequency:    2.3818413484
  - # 6
    frequency:    2.5211051018
  - # 7
    frequency:    2.9652006928
  - # 8
    frequency:    3.0568178158
  - # 9
    frequency:    3.1836848150
  - # 10
    frequency:    3.6772683883
  - # 11
    frequency:    4.5504448733
  - # 12
    frequency:    4.7375634212
  - # 13
    frequency:    4.8279608828
  - # 14
    frequency:    4.8943495559
  - # 15
    frequency:    5.8414606892
  - # 16
    frequency:    6.0309108892
  - # 17
    frequency:    6.2803616261
  - # 18
    frequency:    6.3900429401
  - # 19
    frequency:    6.6087313408
  - # 20
    frequency:    6.6143410998
  - # 21
    frequency:   13.1751971564
  - # 22
    frequency:   13.2878785409
  - # 23
    frequency:   13.7826962172
  - # 24
    frequency:   13.8156120997

- q-position: [    0.0000000,    0.2700000,    0.0000000 ]
  distance:    0.0397878
  band:
  - # 1
    frequency:    1.0390104915
  - # 2
    frequency:    1.1549913971