68   
31   

1    
 -0.0013806156836170   0.0013806156836170   0.0098075379514077
   0.0015133657   -0.0015247644   -0.0164681836
   0.0003226449    0.0007731533   -0.0029671110
  -0.0007998276   -0.0002914668   -0.0029342056
  -0.0004160245    0.0004331340   -0.0019036655
   0.0001998578   -0.0002179289    0.0033162723
   0.0001097466    0.0002245173    0.0012635910
  -0.0002547219   -0.0000880418    0.0012926996
  -0.0000838853    0.0001043296    0.0003714105
   0.0002018292   -0.0002186538    0.0047460081
   0.0001165310    0.0002078355    0.0021266618
  -0.0002374903   -0.0000774805    0.0021110242
  -0.0001019336    0.0001233132    0.0012531540
   0.0000289967   -0.0000519697    0.0006250254
   0.0000364258   -0.0000010355    0.0007294043
  -0.0000301513   -0.0000173544    0.0006116663
  -0.0000133922    0.0000320645    0.0006925722
   0.0009325281    0.0005214037    0.0008951316
   0.0007708468   -0.0003703545    0.0007051660
  -0.0009388151    0.0005179195    0.0011531582
  -0.0008270320   -0.0003679559    0.0009827109
  -0.0005260302   -0.0009338466    0.0008987804
  -0.0005225825    0.0009374469    0.0011492731
   0.0003753812   -0.0007690977    0.0007092061
   0.0003724708    0.0008287708    0.0009790825
  -0.0001321812    0.0001812059    0.0049979237
   0.0003478761   -0.0003479624    0.0050338183
   0.0002954895   -0.0002952011    0.0049510365
  -0.0001809954    0.0001321849    0.0049896697
   0.0002417425    0.0003823164   -0.0009697262
   0.0003587957   -0.0003594194   -0.0012372074
  -0.0002641550    0.0002651879   -0.0006363658
  -0.0003816627   -0.0002419799   -0.0009157498
   0.0002752254    0.0003956890   -0.0009600030
   0.0003688997   -0.0003759140   -0.0011957077
  -0.0002946550    0.0003019158   -0.0007093242
  -0.0003882680   -0.0002823999   -0.0009574576
  -0.0000167253    0.0000153836   -0.0018118174
  -0.0000276448   -0.0000151966   -0.0018291356
   0.0000179390    0.0000276622   -0.0017200439
   0.0000253178   -0.0000255794   -0.0014841213
  -0.0004035402    0.0014382020    0.0000634713
  -0.0004031362   -0.0016021029   -0.0003696908
   0.0003119396    0.0006450604    0.0007922014
   0.0003148177   -0.0006039456    0.0005485866
   0.0016009172    0.0004031103   -0.0003748998
   0.0006037777   -0.0003118733    0.0005394013
  -0.0014375257    0.0004009167    0.0000581793
  -0.0006432471   -0.0003116582    0.0007828510
  -0.0000393279   -0.0000071007   -0.0004676456
  -0.0000122031    0.0000053691   -0.0005055085
   0.0000389876    0.0000380919   -0.0004540751
   0.0000069148   -0.0000322381   -0.0005299479
  -0.0000148839    0.0000137330   -0.0005022750
   0.0000282966   -0.0000116442   -0.0005383411
   0.0000143221    0.0000431812   -0.0004463444
  -0.0000301022   -0.0000358849   -0.0004441008
  -0.0032308104   -0.0042651089   -0.0018553474
  -0.0044323575    0.0044274818   -0.0005718230
   0.0030688217   -0.0030744399   -0.0031814507
   0.0042637124    0.0032262043   -0.0018890698
  -0.0027866821   -0.0036301180   -0.0015359497
  -0.0036642438    0.0036594998   -0.0005385105
   0.0027458934   -0.0027424693   -0.0025322559
   0.0036265178    0.0027876693   -0.0015239711
   0.0000223494    0.0000501029    0.0019154039
   0.0000586558   -0.0000485830    0.0021143945
  -0.0000289891    0.0000202391    0.0017682778
  -0.0000526108   -0.0000135259    0.0017938190

1    
  0.0013806156836170  -0.0013806156836170  -0.0098075379514077
  -0.0014930604    0.0014744211    0.0169013541
  -0.0003004827   -0.0007979599    0.0034907647
   0.0007690063    0.0003340449    0.0035248579
   0.0004121106   -0.0003959989    0.0024844678
  -0.0001873661    0.0001736186   -0.0039286995
  -0.0000857962   -0.0002713586   -0.0018475671
   0.0002249392    0.0001235245   -0.0018127976
   0.0000861264   -0.0000709141   -0.0008823503
  -0.0002049333    0.0001897311   -0.0040625544
  -0.0000852489   -0.0002455090   -0.0013116901
   0.0002133038    0.0001285811   -0.0012707927
   0.0000927815   -0.0000717280   -0.0004518742
  -0.0000002763   -0.0000024995   -0.0015202007
   0.0000020400   -0.0000455517   -0.0015607455
  -0.0000012114    0.0000332780   -0.0013980372
   0.0000156273   -0.0000112517   -0.0014351176
  -0.0010192132   -0.0005134130   -0.0007967093
  -0.0007674453    0.0003690971   -0.0006993482
   0.0009848135   -0.0005118431   -0.0010959616
   0.0008221835    0.0003668362   -0.0009790452
   0.0005182979    0.0010209051   -0.0008007136
   0.0005171203   -0.0009829845   -0.0010917668
  -0.0003735295    0.0007663279   -0.0007034856
  -0.0003713617   -0.0008232987   -0.0009751279
   0.0001344877   -0.0001783114   -0.0055633475
  -0.0003411090    0.0003414902   -0.0056115106
  -0.0003008667    0.0003009399   -0.0055043321
   0.0001783461   -0.0001340657   -0.0055547559
  -0.0002411685   -0.0003790494    0.0015394020
  -0.0003564128    0.0003575569    0.0018051367
   0.0002632626   -0.0002637142    0.0012073381
   0.0003788598    0.0002420623    0.0014847887
  -0.0002764727   -0.0003980694    0.0011503378
  -0.0003718863    0.0003791840    0.0013870248
   0.0002954496   -0.0003022896    0.0008980839
   0.0003909592    0.0002840553    0.0011478515
   0.0000155513   -0.0000146769    0.0016307146
   0.0000273520    0.0000158856    0.0016426845
  -0.0000172236   -0.0000267035    0.0015340887
  -0.0000257244    0.0000265095    0.0012985466
   0.0004085457   -0.0014147320   -0.0003043867
   0.0004096397    0.0015610536    0.0001100527
  -0.0003141190   -0.0006487957   -0.0009998163
  -0.0003173365    0.0006086017   -0.0007581223
  -0.0015592193   -0.0004092031    0.0001005777
  -0.0006076738    0.0003147586   -0.0007636006
   0.0014146069   -0.0004052608   -0.0003134799
   0.0006477976    0.0003141966   -0.0010050196
   0.0000380650    0.0000088867    0.0006786267
   0.0000089330   -0.0000059243    0.0007165204
  -0.0000359152   -0.0000373338    0.0006652360
  -0.0000073278    0.0000331163    0.0007409112
   0.0000153410   -0.0000160625    0.0007275089
  -0.0000290758    0.0000131321    0.0007636880
  -0.0000157061   -0.0000425785    0.0006719984
   0.0000303731    0.0000395974    0.0006706173
   0.0032177834    0.0042347182    0.0018538248
   0.0043836828   -0.0043880220    0.0005794141
  -0.0030638317    0.0030579140    0.0031603374
  -0.0042359999   -0.0032223458    0.0018665356
   0.0027922162    0.0036446906    0.0015508156
   0.0036965391   -0.0036937733    0.0005506583
  -0.0027538379    0.0027500732    0.0025634790
  -0.0036477533   -0.0027914962    0.0015597810
  -0.0000212566   -0.0000496881   -0.0019373712
  -0.0000483011    0.0000507570   -0.0021379745
   0.0000207973   -0.0000142616   -0.0017759966
   0.0000512037    0.0000211232   -0.0018037268

1    
  0.0013806156836170   0.0013806156836170  -0.0098075379514077
  -0.0014919827   -0.0015078309    0.0169005724
  -0.0002996373    0.0007715925    0.0034911994
   0.0007686737   -0.0002898094    0.0035241410
   0.0004110320    0.0004330794    0.0024843950
  -0.0001829997   -0.0002084653   -0.0039301905
  -0.0000849080    0.0002139642   -0.0018468377
   0.0002234373   -0.0000789250   -0.0018143398
   0.0000827599    0.0000984480   -0.0008807456
  -0.0002048018   -0.0002203460   -0.0040765928
  -0.0000853296    0.0002091908   -0.0012979031
   0.0002140044   -0.0000750683   -0.0012850135
   0.0000922579    0.0001227820   -0.0004379699
  -0.0000037814   -0.0000451325   -0.0015885120
  -0.0000002213   -0.0000054654   -0.0014912502
   0.0000021746   -0.0000102406   -0.0014698828
   0.0000216195    0.0000321428   -0.0013635036
  -0.0010199316    0.0005118468   -0.0007970536
  -0.0007666506   -0.0003654844   -0.0006998237
   0.0009840384    0.0005150559   -0.0010953847
   0.0008229116   -0.0003682282   -0.0009786862
   0.0005144650    0.0009846362   -0.0010953773
   0.0005110417   -0.0010191872   -0.0007971289
  -0.0003689784    0.0008236610   -0.0009786270
  -0.0003661440   -0.0007659072   -0.0006998536
  -0.0003411259   -0.0003404979   -0.0056173245
   0.0001345139    0.0001789708   -0.0055578850
   0.0001783133    0.0001352044   -0.0055578438
  -0.0003008448   -0.0003001362   -0.0055009904
  -0.0003564139   -0.0003557376    0.0018383021
  -0.0002412732    0.0003792259    0.0015061215
   0.0003784962   -0.0002405523    0.0015062065
   0.0002635702    0.0002643847    0.0011863270
  -0.0003719658   -0.0003713297    0.0013944994
  -0.0002766668    0.0003917140    0.0011426846
   0.0003910291   -0.0002759604    0.0011427084
   0.0002956944    0.0002964138    0.0009034440
   0.0000180399    0.0000187282    0.0016846514
   0.0000241147   -0.0000191826    0.0015883079
  -0.0000199111    0.0000248317    0.0015886620
  -0.0000219783   -0.0000212255    0.0012445826
   0.0004071146   -0.0015583211    0.0001092835
   0.0004081194    0.0014145851   -0.0003044329
  -0.0003135544   -0.0006061941   -0.0007579492
  -0.0003149913    0.0006483061   -0.0009990062
  -0.0015589768    0.0004078180    0.0001019285
  -0.0006069452   -0.0003128866   -0.0007652425
   0.0014138681    0.0004088299   -0.0003117497
   0.0006475701   -0.0003142130   -0.0010062912
   0.0000328298    0.0000154455    0.0007316252
   0.0000045550   -0.0000152643    0.0006639926
  -0.0000318654   -0.0000275958    0.0007567200
  -0.0000035901    0.0000302705    0.0006508857
   0.0000147695    0.0000335229    0.0007389204
  -0.0000282381   -0.0000311183    0.0007637494
  -0.0000159640    0.0000053537    0.0006713510
   0.0000294246   -0.0000028539    0.0006579741
   0.0043857830    0.0043864631    0.0005625841
   0.0032154384   -0.0042362363    0.0018706579
  -0.0042334207    0.0032114594    0.0018650117
  -0.0030662098   -0.0030686887    0.0031620369
   0.0036911279    0.0036875446    0.0005460260
   0.0027948838   -0.0036516767    0.0015559731
  -0.0036506308    0.0027946082    0.0015607173
  -0.0027482844   -0.0027477767    0.0025622656
  -0.0000512922   -0.0000511248   -0.0021129126
  -0.0000199325    0.0000542723   -0.0019613426
   0.0000525672   -0.0000188389   -0.0019527195
   0.0000192023    0.0000231493   -0.0016281416

1    
 -0.0013806156836170  -0.0013806156836170   0.0098075379514077
   0.0015060955    0.0014956888   -0.0164614851
   0.0003220602   -0.0007960568   -0.0029674943
  -0.0007993475    0.0003318765   -0.0029342108
  -0.0004153666   -0.0003933543   -0.0019039018
   0.0001954532    0.0001700916    0.0033174445
   0.0001088543   -0.0002630429    0.0012625072
  -0.0002532286    0.0001146051    0.0012939885
  -0.0000805589   -0.0000653532    0.0003697945
   0.0002016866    0.0001858794    0.0047601936
   0.0001168730   -0.0002417749    0.0021121542
  -0.0002369481    0.0001271911    0.0021249724
  -0.0001015764   -0.0000712838    0.0012388081
   0.0000324048   -0.0000088475    0.0006928534
   0.0000378138   -0.0000413088    0.0006609749
  -0.0000337036    0.0000277977    0.0006826788
  -0.0000189350   -0.0000081660    0.0006217489
   0.0009333271   -0.0005178965    0.0008953657
   0.0007701691    0.0003687473    0.0007055631
  -0.0009379543   -0.0005195309    0.0011525346
  -0.0008276540    0.0003708362    0.0009823335
  -0.0005200510   -0.0009373417    0.0011526057
  -0.0005186082    0.0009338762    0.0008953607
   0.0003702011   -0.0008269794    0.0009824292
   0.0003682074    0.0007708031    0.0007055894
   0.0003479475    0.0003484833    0.0050394887
  -0.0001320774   -0.0001803543    0.0049923808
  -0.0001809140   -0.0001314807    0.0049924237
   0.0002956143    0.0002962326    0.0049477865
   0.0003588779    0.0003595124   -0.0012699103
   0.0002419542   -0.0003806062   -0.0009370613
  -0.0003811780    0.0002426354   -0.0009369921
  -0.0002643774   -0.0002637359   -0.0006154884
   0.0003690631    0.0003696097   -0.0012030358
   0.0002755405   -0.0003877129   -0.0009526938
  -0.0003882974    0.0002761569   -0.0009526742
  -0.0002947710   -0.0002941458   -0.0007144816
  -0.0000196051   -0.0000190037   -0.0018659239
  -0.0000240914    0.0000218300   -0.0017746641
   0.0000212300   -0.0000234377   -0.0017748413
   0.0000215976    0.0000222372   -0.0014300181
  -0.0004006153    0.0016013339   -0.0003690928
  -0.0004029670   -0.0014360765    0.0000635690
   0.0003111162    0.0006038336    0.0005483038
   0.0003129794   -0.0006422861    0.0007913776
   0.0016007714   -0.0004000236   -0.0003763164
   0.0006031470    0.0003116948    0.0005409826
  -0.0014367018   -0.0004023792    0.0000563796
  -0.0006429183    0.0003136658    0.0007840738
  -0.0000335024   -0.0000135068   -0.0005208277
  -0.0000047693    0.0000152444   -0.0004531121
   0.0000320328    0.0000283260   -0.0005458965
   0.0000030203   -0.0000287588   -0.0004394968
  -0.0000140849   -0.0000329449   -0.0005135362
   0.0000275778    0.0000326859   -0.0005383507
   0.0000146360   -0.0000040964   -0.0004457604
  -0.0000293291    0.0000036703   -0.0004319412
  -0.0044298723   -0.0044293332   -0.0005512392
  -0.0032330199    0.0042634534   -0.0018759981
   0.0042662009   -0.0032369977   -0.0018816255
   0.0030663927    0.0030635870   -0.0031892170
  -0.0036649047   -0.0036685808   -0.0005383862
  -0.0027831872    0.0036219043   -0.0015365478
   0.0036230828   -0.0027835430   -0.0015316147
   0.0027467219    0.0027474812   -0.0025242950
   0.0000532395    0.0000533040    0.0020914037
   0.0000269881   -0.0000559828    0.0019372508
  -0.0000575672    0.0000280177    0.0019459709
  -0.0000201943   -0.0000163696    0.0016168390

9    
 -0.0013806156836170   0.0013806156836170   0.0098075379514077
   0.0001959648   -0.0002305013    0.0046595240
   0.0000879486    0.0002367622    0.0019527292
  -0.0002122947   -0.0001073469    0.0019858839
  -0.0000889967    0.0001236135    0.0011378059
  -0.0001739217   -0.0002363621    0.0007402143
  -0.0001679680    0.0001905051    0.0007790528
   0.0001671842   -0.0002029472    0.0008081222
   0.0001742098    0.0002126637    0.0008078561
   0.0032838476   -0.0032962346   -0.0466610760
   0.0003844573    0.0008480486   -0.0025365389
  -0.0008670515   -0.0003545079   -0.0025296384
  -0.0004118960    0.0004344685   -0.0010950652
  -0.0018094797   -0.0018892089   -0.0003009345
  -0.0018927571    0.0018881354    0.0002553668
   0.0017570324   -0.0017649897   -0.0007589531
   0.0018570565    0.0018402163   -0.0002142510
   0.0000214303   -0.0002024490   -0.0009585052
   0.0000446164    0.0001992113   -0.0009416517
  -0.0000592192   -0.0000933975   -0.0007303730
  -0.0000057320    0.0000900721   -0.0006789824
  -0.0001598281   -0.0000602684   -0.0007880486
  -0.0002680701    0.0000196828   -0.0008998922
   0.0001505781   -0.0000036205   -0.0007720628
   0.0002581566    0.0000469438   -0.0008466997
  -0.0004142030   -0.0002525062   -0.0020310745
  -0.0002763731    0.0002757122   -0.0018049251
   0.0003909653   -0.0003902360   -0.0024866670
   0.0002515779    0.0004154868   -0.0023783421
  -0.0000112323    0.0000047740   -0.0025487193
  -0.0000075598    0.0000167202   -0.0021577927
  -0.0000094578    0.0000046539   -0.0019968329
   0.0000084990   -0.0000024889   -0.0011874394
   0.0002928334    0.0007379627    0.0050996648
   0.0009746317   -0.0009762282    0.0054816360
  -0.0000569077    0.0000588493    0.0046651718
  -0.0007365231   -0.0002939254    0.0050485944
  -0.0003035150    0.0003074869    0.0116733995
  -0.0000798872   -0.0001021798    0.0007775204
   0.0000989040    0.0000834676    0.0008027037
   0.0001021128   -0.0001049039    0.0005369152
  -0.0007133720    0.0018653984    0.0034530141
  -0.0007027555   -0.0009000817    0.0027741754
   0.0004586336   -0.0008766667    0.0003887478
   0.0004486389    0.0009728818    0.0006716518
   0.0008858499    0.0006563790    0.0027985632
  -0.0009582561   -0.0004028411    0.0006954637
  -0.0018794062    0.0006668873    0.0034149361
   0.0008916785   -0.0004129901    0.0003495676
   0.0020987495    0.0000246010   -0.0012961312
   0.0003902615   -0.0000191466   -0.0002109472
  -0.0021386780    0.0000181335   -0.0013071732
  -0.0003898391   -0.0000211607   -0.0001945636
  -0.0000258155    0.0021106738   -0.0013166539
  -0.0000170046   -0.0020740760   -0.0013049388
   0.0000184495    0.0003681647   -0.0001721806
   0.0000223814   -0.0003619894   -0.0001873678
   0.0000394853    0.0000770972    0.0030283552
   0.0000769419   -0.0000816036    0.0032311133
  -0.0000372440    0.0000401084    0.0027696633
  -0.0000609674   -0.0000219491    0.0023253049
   0.0055595640    0.0043281536   -0.0012756048
   0.0038691904   -0.0038705691   -0.0030218537
  -0.0060312834    0.0060319081    0.0006148490
  -0.0043314734   -0.0055590014   -0.0010750099
  -0.0000136443    0.0000187919    0.0126342857
   0.0000036994   -0.0000616001    0.0008898330
   0.0000587981    0.0000070498    0.0008063015
  -0.0000117152    0.0000063127    0.0006089037

9    
  0.0013806156836170  -0.0013806156836170  -0.0098075379514077
  -0.0002012860    0.0001838867   -0.0041159213
  -0.0000653573   -0.0002614242   -0.0014429432
   0.0001804896    0.0001494453   -0.0014074794
   0.0000882254   -0.0000814788   -0.0005632729
   0.0001943287    0.0002053073   -0.0013983710
   0.0001977521   -0.0002445998   -0.0013669639
  -0.0002021603    0.0002443031   -0.0013358284
  -0.0001826683   -0.0001908280   -0.0013259878
  -0.0031662453    0.0031553124    0.0479341298
  -0.0003547927   -0.0008837195    0.0033561358
   0.0008411508    0.0004075190    0.0033751634
   0.0004041836   -0.0003839596    0.0018972935
   0.0018565749    0.0018551499   -0.0005933118
   0.0019531084   -0.0019582903   -0.0010906670
  -0.0018051498    0.0017975924   -0.0000223348
  -0.0018756077   -0.0018365597   -0.0005278097
  -0.0000171801    0.0002042374    0.0009589058
  -0.0000328082   -0.0001797966    0.0009291766
   0.0000419132    0.0000724768    0.0007585830
   0.0000036537   -0.0000880291    0.0006907535
   0.0001582831    0.0000608188    0.0007980057
   0.0002494458   -0.0000317929    0.0008824595
  -0.0001314985    0.0000181629    0.0007979654
  -0.0002580470   -0.0000492555    0.0008490847
   0.0004097992    0.0002539978    0.0014787541
   0.0002750829   -0.0002747469    0.0012561311
  -0.0003886567    0.0003886763    0.0019345306
  -0.0002498778   -0.0004131767    0.0018285683
   0.0000114730   -0.0000045884    0.0031112148
   0.0000078236   -0.0000153271    0.0027382192
   0.0000085678   -0.0000042818    0.0025780485
  -0.0000097809    0.0000052341    0.0017602316
  -0.0002836107   -0.0007266562   -0.0049180085
  -0.0009569977    0.0009589420   -0.0053145564
   0.0000489929   -0.0000505209   -0.0044710606
   0.0007255068    0.0002851550   -0.0048665971
   0.0002927081   -0.0002961752   -0.0126499592
   0.0000798515    0.0001045217   -0.0009733964
  -0.0001007376   -0.0000826410   -0.0009983548
  -0.0001026109    0.0001060594   -0.0007352792
   0.0007059592   -0.0016920198   -0.0035035141
   0.0006968551    0.0008133282   -0.0029023273
  -0.0004567294    0.0008753221   -0.0005925976
  -0.0004474081   -0.0009691076   -0.0008759618
  -0.0007982768   -0.0006498962   -0.0029418891
   0.0009552214    0.0004016027   -0.0009148538
   0.0017066371   -0.0006586538   -0.0034792177
  -0.0008896475    0.0004111726   -0.0005676596
  -0.0021159307   -0.0000245695    0.0015214664
  -0.0003939424    0.0000199329    0.0004218189
   0.0021548822   -0.0000173231    0.0015325641
   0.0003915922    0.0000220087    0.0004044479
   0.0000254673   -0.0021264894    0.0015564584
   0.0000173576    0.0020919999    0.0015448479
  -0.0000188011   -0.0003703853    0.0003971727
  -0.0000227202    0.0003660878    0.0004127008
  -0.0000456149   -0.0000699159   -0.0030353820
  -0.0001206435    0.0000386739   -0.0032515750
   0.0000821096   -0.0000105607   -0.0028036850
   0.0000626174    0.0000084396   -0.0023619704
  -0.0055279551   -0.0043272065    0.0012665133
  -0.0038696383    0.0038694167    0.0030128448
   0.0059720062   -0.0059724347   -0.0005946956
   0.0043238274    0.0055289488    0.0010845538
   0.0000134945   -0.0000187707   -0.0127810199
   0.0000043186    0.0000620264   -0.0009146012
  -0.0000623989    0.0000007670   -0.0008143076
   0.0000135193   -0.0000013442   -0.0006153829

9    
  0.0013806156836170   0.0013806156836170  -0.0098075379514077
  -0.0001534721   -0.0001708455   -0.0041161099
  -0.0000416182    0.0001611822   -0.0014419778
   0.0001581775   -0.0000320496   -0.0014082918
   0.0000448429    0.0000667957   -0.0005634388
   0.0002102287    0.0001843977   -0.0013995848
   0.0002168756   -0.0002286503   -0.0013670837
  -0.0002192619    0.0002228881   -0.0013354135
  -0.0001867920   -0.0001717753   -0.0013248964
  -0.0031500037   -0.0031622440    0.0479372152
  -0.0003483905    0.0008304216    0.0033591582
   0.0008347715   -0.0003376452    0.0033717394
   0.0003920146    0.0004226803    0.0018997954
   0.0019448553    0.0019035909   -0.0011156603
   0.0018594085   -0.0018979008   -0.0005668847
  -0.0018905595    0.0018493820   -0.0005453646
  -0.0017852939   -0.0017739883   -0.0000069176
  -0.0000390197    0.0000521184    0.0009566955
  -0.0000287906   -0.0000443250    0.0009451070
   0.0000373273   -0.0000596786    0.0007421241
   0.0000231920    0.0000621719    0.0006881163
  -0.0000602140    0.0000379184    0.0007421371
   0.0000513803   -0.0000383792    0.0009566500
   0.0000614829    0.0000239001    0.0006882492
  -0.0000449237   -0.0000281122    0.0009450961
   0.0002747013    0.0002752846    0.0011305207
   0.0004111291   -0.0002524686    0.0015951285
  -0.0002530557    0.0004117647    0.0015951752
  -0.0003877475   -0.0003870875    0.0021771353
   0.0000167500    0.0000173776    0.0031760861
   0.0000005670    0.0000033909    0.0026584485
   0.0000027316    0.0000011761    0.0026584689
  -0.0000004238    0.0000003452    0.0016941376
  -0.0009573797   -0.0009567856   -0.0053447890
  -0.0002835602    0.0007259430   -0.0048922568
   0.0007253270   -0.0002829034   -0.0048922400
   0.0000492588    0.0000499167   -0.0044411305
   0.0002922952    0.0002929144   -0.0126392747
   0.0000793780   -0.0000995957   -0.0009860352
  -0.0001002564    0.0000800287   -0.0009859750
  -0.0001020552   -0.0001013493   -0.0007461804
   0.0006607074   -0.0008048276   -0.0029369319
   0.0006503879    0.0016999046   -0.0034692824
  -0.0004120635    0.0009632169   -0.0009105377
  -0.0004016062   -0.0008818472   -0.0005580097
  -0.0008054735    0.0006613455   -0.0029442140
   0.0009625154   -0.0004114433   -0.0009178553
   0.0016992885    0.0006510278   -0.0034765317
  -0.0008825056   -0.0004008777   -0.0005653111
  -0.0020967222    0.0000211195    0.0015368282
  -0.0003717654   -0.0000199745    0.0004072751
   0.0021336829    0.0000212852    0.0015465668
   0.0003710789   -0.0000202982    0.0003901521
   0.0000204929   -0.0020960102    0.0015441832
   0.0000206148    0.0021342207    0.0015539488
  -0.0000206421   -0.0003710222    0.0004146379
  -0.0000210462    0.0003717807    0.0003974786
  -0.0000797601   -0.0000791170   -0.0032596908
  -0.0000421074    0.0000759167   -0.0030258435
   0.0000785986   -0.0000460342   -0.0030313687
   0.0000166172    0.0000139836   -0.0021363962
  -0.0038729309   -0.0038766082    0.0030852738
  -0.0055254577    0.0043196382    0.0012034096
   0.0043207939   -0.0055257602    0.0012081981
   0.0059754982    0.0059761736   -0.0007283776
   0.0000165362    0.0000167479   -0.0128162218
   0.0000050100   -0.0000607454   -0.0008683279
  -0.0000623611    0.0000058371   -0.0008596110
   0.0000087420    0.0000125625   -0.0005811192

9    
 -0.0013806156836170  -0.0013806156836170   0.0098075379514077
   0.0001536379    0.0001365643    0.0046593842
   0.0000645404   -0.0001862596    0.0019523279
  -0.0001897753    0.0000741115    0.0019858680
  -0.0000498542   -0.0000281059    0.0011374100
  -0.0001991678   -0.0002245235    0.0007409553
  -0.0001911816    0.0001793401    0.0007773340
   0.0001886182   -0.0001850771    0.0008095802
   0.0001855387    0.0002014350    0.0008066916
   0.0032696411    0.0032550914   -0.0466409591
   0.0003778793   -0.0008649198   -0.0025397598
  -0.0008604045    0.0003883689   -0.0025269881
  -0.0004001299   -0.0003695607   -0.0010979856
  -0.0018931842   -0.0019345661    0.0002145810
  -0.0018042004    0.0018319973   -0.0002625325
   0.0018395098   -0.0018139959   -0.0002410565
   0.0017693829    0.0017801744   -0.0007311312
   0.0000410416   -0.0000496223   -0.0009512368
   0.0000277868    0.0000454407   -0.0009378761
  -0.0000397484    0.0000595917   -0.0007376519
  -0.0000229650   -0.0000605922   -0.0006828291
   0.0000590259   -0.0000391221   -0.0007376145
  -0.0000503871    0.0000417233   -0.0009512825
  -0.0000613093   -0.0000222034   -0.0006827530
   0.0000448134    0.0000284784   -0.0009378719
  -0.0002756315   -0.0002750361   -0.0016799712
  -0.0004142611    0.0002538700   -0.0021461070
   0.0002532347   -0.0004136012   -0.0021460703
   0.0003899874    0.0003906757   -0.0027294962
  -0.0000169844   -0.0000163326   -0.0026139313
  -0.0000009602   -0.0000023176   -0.0020781161
  -0.0000030085   -0.0000002812   -0.0020779806
   0.0000001103    0.0000009132   -0.0011220021
   0.0009749871    0.0009755846    0.0055115260
   0.0002928160   -0.0007357481    0.0050737230
  -0.0007364117    0.0002934880    0.0050737560
  -0.0000571402   -0.0000564466    0.0046349553
  -0.0003030998   -0.0003024308    0.0116625288
  -0.0000794187    0.0000991242    0.0007898740
   0.0000984432   -0.0000787233    0.0007899441
   0.0001017004    0.0001024317    0.0005473183
  -0.0006668000    0.0008936257    0.0028079671
  -0.0006580455   -0.0018712767    0.0034189848
   0.0004134877   -0.0009647649    0.0007055111
   0.0004038942    0.0008853567    0.0003541291
   0.0008930519   -0.0006661317    0.0028006653
  -0.0009655062    0.0004141097    0.0006982034
  -0.0018720156   -0.0006573782    0.0034117250
   0.0008846377    0.0004046383    0.0003468261
   0.0020796841   -0.0000199241   -0.0013118809
   0.0003680337    0.0000207314   -0.0001967027
  -0.0021175763   -0.0000199491   -0.0013214503
  -0.0003692866    0.0000211416   -0.0001804455
  -0.0000205847    0.0020802335   -0.0013046343
  -0.0000206451   -0.0021167366   -0.0013142463
   0.0000200463    0.0003688138   -0.0001893495
   0.0000203859   -0.0003685892   -0.0001731439
   0.0000801936    0.0000809326    0.0032481345
   0.0000369525   -0.0000796410    0.0030046219
  -0.0000767897    0.0000329323    0.0029990426
  -0.0000197522   -0.0000223077    0.0021016176
   0.0038662004    0.0038626008   -0.0030990988
   0.0055631876   -0.0043357914   -0.0012093255
  -0.0043346736    0.0055629639   -0.0012044763
  -0.0060285810   -0.0060279659    0.0007542857
  -0.0000163921   -0.0000163122    0.0126685147
   0.0000029112    0.0000608398    0.0008430793
   0.0000591657    0.0000037609    0.0008517574
  -0.0000086554   -0.0000048505    0.0005751341

17   
 -0.0013806156836170   0.0013806156836170   0.0098075379514077
   0.0010443788    0.0005000797    0.0010389103
   0.0009530582   -0.0003689292    0.0009827005
  -0.0010219970    0.0005408748    0.0013804883
  -0.0010031229   -0.0003376037    0.0012382840
  -0.0009520147    0.0005012160    0.0008095671
  -0.0009894622   -0.0003819484    0.0006716395
   0.0009398895    0.0005392188    0.0006194333
   0.0009449489   -0.0003413396    0.0004801993
   0.0001964840    0.0000388439   -0.0005125161
   0.0002760700   -0.0000583596   -0.0004750536
  -0.0002112178    0.0000261006   -0.0003770671
  -0.0002696784    0.0000334701   -0.0004169052
  -0.0001849373   -0.0000298915   -0.0012461967
  -0.0002475040   -0.0000041445   -0.0012319423
   0.0001772139    0.0000602922   -0.0012733177
   0.0002616701   -0.0000198059   -0.0012559983
   0.0023487275   -0.0221586143   -0.0196622620
  -0.0002608589    0.0040903959    0.0003180510
  -0.0003365465   -0.0008115078   -0.0011932805
  -0.0005096637    0.0011442467   -0.0003483316
   0.0008242201    0.0000128947   -0.0019374706
  -0.0027518392    0.0018196815   -0.0019320020
  -0.0027126404    0.0017957513   -0.0019401420
   0.0008711519    0.0000475160   -0.0019349208
  -0.0000826540   -0.0002571153   -0.0014081419
  -0.0000823714    0.0002435259   -0.0011041782
   0.0002595572   -0.0055455772    0.0026425730
   0.0002579325    0.0073218148    0.0059976804
   0.0002628205   -0.0055937644    0.0031966108
   0.0002628470    0.0074212716    0.0066096036
  -0.0000836050   -0.0002606211   -0.0008543092
  -0.0000834354    0.0002477969   -0.0005508167
   0.0000292492   -0.0000582129    0.0008747908
  -0.0000092333    0.0000446265    0.0009662370
  -0.0000419738    0.0000695875    0.0013998503
  -0.0000177888   -0.0000060286    0.0015077771
  -0.0000447643    0.0000707134    0.0012120093
  -0.0000162952   -0.0000043399    0.0013185065
   0.0000296779   -0.0000581699    0.0006815062
  -0.0000024177    0.0000461631    0.0007771059
  -0.0003988857   -0.0001131509    0.0000206996
  -0.0004750511    0.0001118428    0.0001463391
   0.0004010490   -0.0000803678   -0.0000146446
   0.0004845593    0.0000811118    0.0001114068
  -0.0000748214   -0.0000665425    0.0004827155
  -0.0000152483    0.0000790862   -0.0000564459
   0.0000464547   -0.0003477657    0.0006580390
  -0.0000208416    0.0005200933    0.0016368296
   0.0004015533   -0.0000823298    0.0001907801
   0.0004822867    0.0000805610    0.0003131758
  -0.0003999332   -0.0001145506    0.0002275124
  -0.0004785322    0.0001105696    0.0003558404
   0.0000472016   -0.0003525830    0.0008752336
  -0.0000213695    0.0005287345    0.0018709489
  -0.0000778769   -0.0000663117    0.0007106187
  -0.0000143754    0.0001094515    0.0001641883
  -0.0001608602    0.0049232744    0.0038144303
  -0.0001525568    0.0047947033    0.0037368978
   0.0011424879   -0.0000875572    0.0015011853
   0.0011432193   -0.0000940402    0.0014975303
   0.0000516780    0.0003192068    0.0000744633
   0.0000987518   -0.0003422726   -0.0001601027
  -0.0000301855   -0.0006004653   -0.0024559832
  -0.0000603969    0.0005144507   -0.0040845862
  -0.0000284324   -0.0006021700   -0.0024725693
  -0.0000589532    0.0005109224   -0.0041297052
   0.0000525333    0.0003079881    0.0000832348