phonopy:
  version: 2.15.0
  calculator: aims
  frequency_unit_conversion_factor: 15.633302
  symmetry_tolerance: 1.00000e-05
  configuration:
    dim: "2 2 1"
    irreps: "0 0 0"

physical_unit:
  atomic_mass: "AMU"
  length: "angstrom"
  force_constants: "eV/angstrom^2"

space_group:
  type: "I4/mmm"
  number: 139
  Hall_symbol: "-I 4 2"

supercell_matrix:
- [   2,   0,   0 ]
- [   0,   2,   0 ]
- [   0,   0,   1 ]

primitive_cell:
  lattice:
  - [    -2.481052130000000,     2.481052130000000,    17.624754820000000 ] # a
  - [     2.481052130000000,    -2.481052130000000,    17.624754820000000 ] # b
  - [     2.481052130000000,     2.481052130000000,   -17.624754820000000 ] # c
  points:
  - symbol: Ba # 1
    coordinates: [  0.432557470000000,  0.432557470000000,  0.000000000000000 ]
    mass: 137.327000
  - symbol: Ba # 2
    coordinates: [  0.567442530000000,  0.567442530000000,  0.000000000000000 ]
    mass: 137.327000
  - symbol: Ba # 3
    coordinates: [  0.300515740000000,  0.300515740000000,  0.000000000000000 ]
    mass: 137.327000
  - symbol: Ba # 4
    coordinates: [  0.699484260000000,  0.699484260000000,  0.000000000000000 ]
    mass: 137.327000
  - symbol: S  # 5
    coordinates: [  0.500000000000000,  0.000000000000000,  0.500000000000000 ]
    mass: 32.065000
  - symbol: S  # 6
    coordinates: [  0.000000000000000,  0.500000000000000,  0.500000000000000 ]
    mass: 32.065000
  - symbol: S  # 7
    coordinates: [  0.929325550000000,  0.929325550000000,  0.000000000000000 ]
    mass: 32.065000
  - symbol: S  # 8
    coordinates: [  0.070674450000000,  0.070674450000000,  0.000000000000000 ]
    mass: 32.065000
  - symbol: S  # 9
    coordinates: [  0.786248210000000,  0.786248210000000,  0.000000000000000 ]
    mass: 32.065000
  - symbol: S  # 10
    coordinates: [  0.213751790000000,  0.213751790000000,  0.000000000000000 ]
    mass: 32.065000
  - symbol: S  # 11
    coordinates: [  0.860797260000000,  0.360797260000000,  0.500000000000000 ]
    mass: 32.065000
  - symbol: S  # 12
    coordinates: [  0.360797260000000,  0.860797260000000,  0.500000000000000 ]
    mass: 32.065000
  - symbol: S  # 13
    coordinates: [  0.139202740000000,  0.639202740000000,  0.500000000000000 ]
    mass: 32.065000
  - symbol: S  # 14
    coordinates: [  0.639202740000000,  0.139202740000000,  0.500000000000000 ]
    mass: 32.065000
  - symbol: Zr # 15
    coordinates: [  0.000000000000000,  0.000000000000000,  0.000000000000000 ]
    mass: 91.224000
  - symbol: Zr # 16
    coordinates: [  0.856629990000000,  0.856629990000000,  0.000000000000000 ]
    mass: 91.224000
  - symbol: Zr # 17
    coordinates: [  0.143370010000000,  0.143370010000000,  0.000000000000000 ]
    mass: 91.224000
  reciprocal_lattice: # without 2pi
  - [    -0.000000000000000,     0.201527406036406,     0.028369188967816 ] # a*
  - [     0.201527406036406,     0.000000000000000,     0.028369188967816 ] # b*
  - [     0.201527406036406,     0.201527406036406,     0.000000000000000 ] # c*

unit_cell:
  lattice:
  - [    -2.481052130000000,     2.481052130000000,    17.624754820000000 ] # a
  - [     2.481052130000000,    -2.481052130000000,    17.624754820000000 ] # b
  - [     2.481052130000000,     2.481052130000000,   -17.624754820000000 ] # c
  points:
  - symbol: Ba # 1
    coordinates: [  0.432557470000000,  0.432557470000000,  0.000000000000000 ]
    mass: 137.327000
    reduced_to: 1
  - symbol: Ba # 2
    coordinates: [  0.567442530000000,  0.567442530000000,  0.000000000000000 ]
    mass: 137.327000
    reduced_to: 2
  - symbol: Ba # 3
    coordinates: [  0.300515740000000,  0.300515740000000,  0.000000000000000 ]
    mass: 137.327000
    reduced_to: 3
  - symbol: Ba # 4
    coordinates: [  0.699484260000000,  0.699484260000000,  0.000000000000000 ]
    mass: 137.327000
    reduced_to: 4
  - symbol: S  # 5
    coordinates: [  0.500000000000000,  0.000000000000000,  0.500000000000000 ]
    mass: 32.065000
    reduced_to: 5
  - symbol: S  # 6
    coordinates: [  1.000000000000000,  0.500000000000000,  0.500000000000000 ]
    mass: 32.065000
    reduced_to: 6
  - symbol: S  # 7
    coordinates: [  0.929325550000000,  0.929325550000000,  0.000000000000000 ]
    mass: 32.065000
    reduced_to: 7
  - symbol: S  # 8
    coordinates: [  0.070674450000000,  0.070674450000000,  0.000000000000000 ]
    mass: 32.065000
    reduced_to: 8
  - symbol: S  # 9
    coordinates: [  0.786248210000000,  0.786248210000000,  0.000000000000000 ]
    mass: 32.065000
    reduced_to: 9
  - symbol: S  # 10
    coordinates: [  0.213751790000000,  0.213751790000000,  0.000000000000000 ]
    mass: 32.065000
    reduced_to: 10
  - symbol: S  # 11
    coordinates: [  0.860797260000000,  0.360797260000000,  0.500000000000000 ]
    mass: 32.065000
    reduced_to: 11
  - symbol: S  # 12
    coordinates: [  0.360797260000000,  0.860797260000000,  0.500000000000000 ]
    mass: 32.065000
    reduced_to: 12
  - symbol: S  # 13
    coordinates: [  0.139202740000000,  0.639202740000000,  0.500000000000000 ]
    mass: 32.065000
    reduced_to: 13
  - symbol: S  # 14
    coordinates: [  0.639202740000000,  0.139202740000000,  0.500000000000000 ]
    mass: 32.065000
    reduced_to: 14
  - symbol: Zr # 15
    coordinates: [  0.000000000000000,  0.000000000000000,  0.000000000000000 ]
    mass: 91.224000
    reduced_to: 15
  - symbol: Zr # 16
    coordinates: [  0.856629990000000,  0.856629990000000,  0.000000000000000 ]
    mass: 91.224000
    reduced_to: 16
  - symbol: Zr # 17
    coordinates: [  0.143370010000000,  0.143370010000000,  0.000000000000000 ]
    mass: 91.224000
    reduced_to: 17

supercell:
  lattice:
  - [    -4.962104260000000,     4.962104260000000,    35.249509639999999 ] # a
  - [     4.962104260000000,    -4.962104260000000,    35.249509639999999 ] # b
  - [     2.481052130000000,     2.481052130000000,   -17.624754820000000 ] # c
  points:
  - symbol: Ba # 1
    coordinates: [  0.216278735000000,  0.216278735000000,  0.000000000000000 ]
    mass: 137.327000
    reduced_to: 1
  - symbol: Ba # 2
    coordinates: [  0.716278735000000,  0.216278735000000,  0.000000000000000 ]
    mass: 137.327000
    reduced_to: 1
  - symbol: Ba # 3
    coordinates: [  0.216278735000000,  0.716278735000000,  0.000000000000000 ]
    mass: 137.327000
    reduced_to: 1
  - symbol: Ba # 4
    coordinates: [  0.716278735000000,  0.716278735000000,  0.000000000000000 ]
    mass: 137.327000
    reduced_to: 1
  - symbol: Ba # 5
    coordinates: [  0.283721265000000,  0.283721265000000,  0.000000000000000 ]
    mass: 137.327000
    reduced_to: 5
  - symbol: Ba # 6
    coordinates: [  0.783721265000000,  0.283721265000000,  0.000000000000000 ]
    mass: 137.327000
    reduced_to: 5
  - symbol: Ba # 7
    coordinates: [  0.283721265000000,  0.783721265000000,  0.000000000000000 ]
    mass: 137.327000
    reduced_to: 5
  - symbol: Ba # 8
    coordinates: [  0.783721265000000,  0.783721265000000,  0.000000000000000 ]
    mass: 137.327000
    reduced_to: 5
  - symbol: Ba # 9
    coordinates: [  0.150257870000000,  0.150257870000000,  0.000000000000000 ]
    mass: 137.327000
    reduced_to: 9
  - symbol: Ba # 10
    coordinates: [  0.650257870000000,  0.150257870000000,  0.000000000000000 ]
    mass: 137.327000
    reduced_to: 9
  - symbol: Ba # 11
    coordinates: [  0.150257870000000,  0.650257870000000,  0.000000000000000 ]
    mass: 137.327000
    reduced_to: 9
  - symbol: Ba # 12
    coordinates: [  0.650257870000000,  0.650257870000000,  0.000000000000000 ]
    mass: 137.327000
    reduced_to: 9
  - symbol: Ba # 13
    coordinates: [  0.349742130000000,  0.349742130000000,  0.000000000000000 ]
    mass: 137.327000
    reduced_to: 13
  - symbol: Ba # 14
    coordinates: [  0.849742130000000,  0.349742130000000,  0.000000000000000 ]
    mass: 137.327000
    reduced_to: 13
  - symbol: Ba # 15
    coordinates: [  0.349742130000000,  0.849742130000000,  0.000000000000000 ]
    mass: 137.327000
    reduced_to: 13
  - symbol: Ba # 16
    coordinates: [  0.849742130000000,  0.849742130000000,  0.000000000000000 ]
    mass: 137.327000
    reduced_to: 13
  - symbol: S  # 17
    coordinates: [  0.250000000000000,  0.000000000000000,  0.500000000000000 ]
    mass: 32.065000
    reduced_to: 17
  - symbol: S  # 18
    coordinates: [  0.750000000000000,  0.000000000000000,  0.500000000000000 ]
    mass: 32.065000
    reduced_to: 17
  - symbol: S  # 19
    coordinates: [  0.250000000000000,  0.500000000000000,  0.500000000000000 ]
    mass: 32.065000
    reduced_to: 17
  - symbol: S  # 20
    coordinates: [  0.750000000000000,  0.500000000000000,  0.500000000000000 ]
    mass: 32.065000
    reduced_to: 17
  - symbol: S  # 21
    coordinates: [  0.500000000000000,  0.250000000000000,  0.500000000000000 ]
    mass: 32.065000
    reduced_to: 21
  - symbol: S  # 22
    coordinates: [  0.000000000000000,  0.250000000000000,  0.500000000000000 ]
    mass: 32.065000
    reduced_to: 21
  - symbol: S  # 23
    coordinates: [  0.500000000000000,  0.750000000000000,  0.500000000000000 ]
    mass: 32.065000
    reduced_to: 21
  - symbol: S  # 24
    coordinates: [  0.000000000000000,  0.750000000000000,  0.500000000000000 ]
    mass: 32.065000
    reduced_to: 21
  - symbol: S  # 25
    coordinates: [  0.464662775000000,  0.464662775000000,  0.000000000000000 ]
    mass: 32.065000
    reduced_to: 25
  - symbol: S  # 26
    coordinates: [  0.964662775000000,  0.464662775000000,  0.000000000000000 ]
    mass: 32.065000
    reduced_to: 25
  - symbol: S  # 27
    coordinates: [  0.464662775000000,  0.964662775000000,  0.000000000000000 ]
    mass: 32.065000
    reduced_to: 25
  - symbol: S  # 28
    coordinates: [  0.964662775000000,  0.964662775000000,  0.000000000000000 ]
    mass: 32.065000
    reduced_to: 25
  - symbol: S  # 29
    coordinates: [  0.035337225000000,  0.035337225000000,  0.000000000000000 ]
    mass: 32.065000
    reduced_to: 29
  - symbol: S  # 30
    coordinates: [  0.535337225000000,  0.035337225000000,  0.000000000000000 ]
    mass: 32.065000
    reduced_to: 29
  - symbol: S  # 31
    coordinates: [  0.035337225000000,  0.535337225000000,  0.000000000000000 ]
    mass: 32.065000
    reduced_to: 29
  - symbol: S  # 32
    coordinates: [  0.535337225000000,  0.535337225000000,  0.000000000000000 ]
    mass: 32.065000
    reduced_to: 29
  - symbol: S  # 33
    coordinates: [  0.393124105000000,  0.393124105000000,  0.000000000000000 ]
    mass: 32.065000
    reduced_to: 33
  - symbol: S  # 34
    coordinates: [  0.893124105000000,  0.393124105000000,  0.000000000000000 ]
    mass: 32.065000
    reduced_to: 33
  - symbol: S  # 35
    coordinates: [  0.393124105000000,  0.893124105000000,  0.000000000000000 ]
    mass: 32.065000
    reduced_to: 33
  - symbol: S  # 36
    coordinates: [  0.893124105000000,  0.893124105000000,  0.000000000000000 ]
    mass: 32.065000
    reduced_to: 33
  - symbol: S  # 37
    coordinates: [  0.106875895000000,  0.106875895000000,  0.000000000000000 ]
    mass: 32.065000
    reduced_to: 37
  - symbol: S  # 38
    coordinates: [  0.606875895000000,  0.106875895000000,  0.000000000000000 ]
    mass: 32.065000
    reduced_to: 37
  - symbol: S  # 39
    coordinates: [  0.106875895000000,  0.606875895000000,  0.000000000000000 ]
    mass: 32.065000
    reduced_to: 37
  - symbol: S  # 40
    coordinates: [  0.606875895000000,  0.606875895000000,  0.000000000000000 ]
    mass: 32.065000
    reduced_to: 37
  - symbol: S  # 41
    coordinates: [  0.430398630000000,  0.180398630000000,  0.500000000000000 ]
    mass: 32.065000
    reduced_to: 41
  - symbol: S  # 42
    coordinates: [  0.930398630000000,  0.180398630000000,  0.500000000000000 ]
    mass: 32.065000
    reduced_to: 41
  - symbol: S  # 43
    coordinates: [  0.430398630000000,  0.680398630000000,  0.500000000000000 ]
    mass: 32.065000
    reduced_to: 41
  - symbol: S  # 44
    coordinates: [  0.930398630000000,  0.680398630000000,  0.500000000000000 ]
    mass: 32.065000
    reduced_to: 41
  - symbol: S  # 45
    coordinates: [  0.180398630000000,  0.430398630000000,  0.500000000000000 ]
    mass: 32.065000
    reduced_to: 45
  - symbol: S  # 46
    coordinates: [  0.680398630000000,  0.430398630000000,  0.500000000000000 ]
    mass: 32.065000
    reduced_to: 45
  - symbol: S  # 47
    coordinates: [  0.180398630000000,  0.930398630000000,  0.500000000000000 ]
    mass: 32.065000
    reduced_to: 45
  - symbol: S  # 48
    coordinates: [  0.680398630000000,  0.930398630000000,  0.500000000000000 ]
    mass: 32.065000
    reduced_to: 45
  - symbol: S  # 49
    coordinates: [  0.069601370000000,  0.319601370000000,  0.500000000000000 ]
    mass: 32.065000
    reduced_to: 49
  - symbol: S  # 50
    coordinates: [  0.569601370000000,  0.319601370000000,  0.500000000000000 ]
    mass: 32.065000
    reduced_to: 49
  - symbol: S  # 51
    coordinates: [  0.069601370000000,  0.819601370000000,  0.500000000000000 ]
    mass: 32.065000
    reduced_to: 49
  - symbol: S  # 52
    coordinates: [  0.569601370000000,  0.819601370000000,  0.500000000000000 ]
    mass: 32.065000
    reduced_to: 49
  - symbol: S  # 53
    coordinates: [  0.319601370000000,  0.069601370000000,  0.500000000000000 ]
    mass: 32.065000
    reduced_to: 53
  - symbol: S  # 54
    coordinates: [  0.819601370000000,  0.069601370000000,  0.500000000000000 ]
    mass: 32.065000
    reduced_to: 53
  - symbol: S  # 55
    coordinates: [  0.319601370000000,  0.569601370000000,  0.500000000000000 ]
    mass: 32.065000
    reduced_to: 53
  - symbol: S  # 56
    coordinates: [  0.819601370000000,  0.569601370000000,  0.500000000000000 ]
    mass: 32.065000
    reduced_to: 53
  - symbol: Zr # 57
    coordinates: [  0.000000000000000,  0.000000000000000,  0.000000000000000 ]
    mass: 91.224000
    reduced_to: 57
  - symbol: Zr # 58
    coordinates: [  0.500000000000000,  0.000000000000000,  0.000000000000000 ]
    mass: 91.224000
    reduced_to: 57
  - symbol: Zr # 59
    coordinates: [  0.000000000000000,  0.500000000000000,  0.000000000000000 ]
    mass: 91.224000
    reduced_to: 57
  - symbol: Zr # 60
    coordinates: [  0.500000000000000,  0.500000000000000,  0.000000000000000 ]
    mass: 91.224000
    reduced_to: 57
  - symbol: Zr # 61
    coordinates: [  0.428314995000000,  0.428314995000000,  0.000000000000000 ]
    mass: 91.224000
    reduced_to: 61
  - symbol: Zr # 62
    coordinates: [  0.928314995000000,  0.428314995000000,  0.000000000000000 ]
    mass: 91.224000
    reduced_to: 61
  - symbol: Zr # 63
    coordinates: [  0.428314995000000,  0.928314995000000,  0.000000000000000 ]
    mass: 91.224000
    reduced_to: 61
  - symbol: Zr # 64
    coordinates: [  0.928314995000000,  0.928314995000000,  0.000000000000000 ]
    mass: 91.224000
    reduced_to: 61
  - symbol: Zr # 65
    coordinates: [  0.071685005000000,  0.071685005000000,  0.000000000000000 ]
    mass: 91.224000
    reduced_to: 65
  - symbol: Zr # 66
    coordinates: [  0.571685005000000,  0.071685005000000,  0.000000000000000 ]
    mass: 91.224000
    reduced_to: 65
  - symbol: Zr # 67
    coordinates: [  0.071685005000000,  0.571685005000000,  0.000000000000000 ]
    mass: 91.224000
    reduced_to: 65
  - symbol: Zr # 68
    coordinates: [  0.571685005000000,  0.571685005000000,  0.000000000000000 ]
    mass: 91.224000
    reduced_to: 65
