calculator: aims
length_unit: angstrom
nqpoint: 663    
npath: 13     
segment_nqpoint:
- 51
- 51
- 51
- 51
- 51
- 51
- 51
- 51
- 51
- 51
- 51
- 51
- 51
labels:
- [ 'G', 'Y' ]
- [ 'Y', 'H' ]
- [ 'H', 'C' ]
- [ 'C', 'E' ]
- [ 'E', 'M1' ]
- [ 'M1', 'A' ]
- [ 'A', 'X' ]
- [ 'X', 'H1:' ]
- [ 'H1:', 'M' ]
- [ 'M', 'D' ]
- [ 'D', 'Z:' ]
- [ 'Z:', 'Y' ]
- [ 'Y', 'D' ]
reciprocal_lattice:
- [   0.11030540,   0.00000000,  -0.01330068 ] # a*
- [   0.00000000,   0.27782535,   0.00000000 ] # b*
- [   0.00000000,   0.00000000,   0.19827697 ] # c*
natom: 8      
lattice:
- [     9.065739490000000,     0.000000000000000,     0.000000000000000 ] # a
- [     0.000000000000000,     3.599383609999999,     0.000000000000000 ] # b
- [     0.608141640000000,     0.000000000000000,     5.043450110000000 ] # c
points:
- symbol: S  # 1
  coordinates: [  0.554755690000000,  0.250000000000000,  0.238173340000000 ]
  mass: 32.065000
- symbol: S  # 2
  coordinates: [  0.445244310000000,  0.750000000000000,  0.761826660000000 ]
  mass: 32.065000
- symbol: S  # 3
  coordinates: [  0.174896830000000,  0.250000000000000,  0.525244940000000 ]
  mass: 32.065000
- symbol: S  # 4
  coordinates: [  0.825103170000000,  0.750000000000000,  0.474755060000000 ]
  mass: 32.065000
- symbol: S  # 5
  coordinates: [  0.173953000000000,  0.250000000000000,  0.115918200000000 ]
  mass: 32.065000
- symbol: S  # 6
  coordinates: [  0.826047000000000,  0.750000000000000,  0.884081800000000 ]
  mass: 32.065000
- symbol: Zr # 7
  coordinates: [  0.652796720000000,  0.250000000000000,  0.717279060000000 ]
  mass: 91.224000
- symbol: Zr # 8
  coordinates: [  0.347203280000000,  0.750000000000000,  0.282720940000000 ]
  mass: 91.224000

phonon:
- q-position: [    0.0000000,    0.0000000,    0.0000000 ]
  distance:    0.0000000
  band:
  - # 1
    frequency:   -0.0003727926
  - # 2
    frequency:   -0.0001578311
  - # 3
    frequency:    0.0000000558
  - # 4
    frequency:    2.1889309834
  - # 5
    frequency:    2.3471642277
  - # 6
    frequency:    2.7739013532
  - # 7
    frequency:    3.3093402098
  - # 8
    frequency:    4.0743832062
  - # 9
    frequency:    4.2043903231
  - # 10
    frequency:    4.2470970997
  - # 11
    frequency:    6.3898320738
  - # 12
    frequency:    6.5288017283
  - # 13
    frequency:    7.1938347759
  - # 14
    frequency:    7.2099492981
  - # 15
    frequency:    7.3349911796
  - # 16
    frequency:    8.1112609847
  - # 17
    frequency:    8.1191086398
  - # 18
    frequency:    8.2081040480
  - # 19
    frequency:    9.2455456757
  - # 20
    frequency:    9.3959369559
  - # 21
    frequency:    9.7149121070
  - # 22
    frequency:   10.3150939764
  - # 23
    frequency:   15.3274869462
  - # 24
    frequency:   15.4199305748

- q-position: [    0.0100000,    0.0000000,    0.0000000 ]
  distance:    0.0011110
  band:
  - # 1
    frequency:    0.0134554105
  - # 2
    frequency:    0.0158163805
  - # 3
    frequency:    0.0304893409
  - # 4
    frequency:    2.1884938550
  - # 5
    frequency:    2.3476348341
  - # 6
    frequency:    2.7738178551
  - # 7
    frequency:    3.3092729607
  - # 8
    frequency:    4.0744139508
  - # 9
    frequency:    4.2042254895
  - # 10
    frequency:    4.2470776872
  - # 11
    frequency:    6.3898423800
  - # 12
    frequency:    6.5288117682
  - # 13
    frequency:    7.1938741878
  - # 14
    frequency:    7.2099449206
  - # 15
    frequency:    7.3349319931
  - # 16
    frequency:    8.1111615987
  - # 17
    frequency:    8.1192552681
  - # 18
    frequency:    8.2080671832
  - # 19
    frequency:    9.2455626161
  - # 20
    frequency:    9.3959304165
  - # 21
    frequency:    9.7149060976
  - # 22
    frequency:   10.3153624563
  - # 23
    frequency:   15.3275540143
  - # 24
    frequency:   15.4199611671

- q-position: [    0.0200000,    0.0000000,    0.0000000 ]
  distance:    0.0022221
  band:
  - # 1
    frequency:    0.0269026711
  - # 2
    frequency:    0.0316208446
  - # 3
    frequency:    0.0609545704
  - # 4
    frequency:    2.1871986767
  - # 5
    frequency:    2.3490303906
  - # 6
    frequency:    2.7735676304
  - # 7
    frequency:    3.3090713715
  - # 8
    frequency:    4.0745061070
  - # 9
    frequency:    4.2037316527
  - # 10
    frequency:    4.2470194824
  - # 11
    frequency:    6.3898732732
  - # 12
    frequency:    6.5288418401
  - # 13
    frequency:    7.1939922881
  - # 14
    frequency:    7.2099319115
  - # 15
    frequency:    7.3347545545
  - # 16
    frequency:    8.1108779279
  - # 17
    frequency:    8.1196803580
  - # 18
    frequency:    8.2079569850
  - # 19
    frequency:    9.2456134152
  - # 20
    frequency:    9.3959107982
  - # 21
    frequency:    9.7148880966
  - # 22
    frequency:   10.3161665970
  - # 23
    frequency:   15.3277550212
  - # 24
    frequency:   15.4200527595

- q-position: [    0.0300000,    0.0000000,    0.0000000 ]
  distance:    0.0033331
  band:
  - # 1
    frequency:    0.0403288518
  - # 2
    frequency:    0.0474014605
  - # 3
    frequency:    0.0913647333
  - # 4
    frequency:    2.1850914591
  - # 5
    frequency:    2.3513047181
  - # 6
    frequency:    2.7731514881
  - # 7
    frequency:    3.3087359165
  - # 8
    frequency:    4.0746594419
  - # 9
    frequency:    4.2029108023
  - # 10
    frequency:    4.2469225829
  - # 11
    frequency:    6.3899246768
  - # 12
    frequency:    6.5288918020
  - # 13
    frequency:    7.1941886708
  - # 14
    frequency:    7.2099106410
  - # 15
    frequency:    7.3344592264
  - # 16
    frequency:    8.1104432964
  - # 17
    frequency:    8.1203496641
  - # 18
    frequency:    8.2077746376
  - # 19
    frequency:    9.2456980054
  - # 20
    frequency:    9.3958781009
  - # 21
    frequency:    9.7148581856
  - # 22
    frequency:   10.3175025116
  - # 23
    frequency:   15.3280893748
  - # 24
    frequency:   15.4202047992

- q-position: [    0.0400000,    0.0000000,    0.0000000 ]
  distance:    0.0044442
  band:
  - # 1
    frequency:    0.0537239794
  - # 2
    frequency:    0.0631462655
  - # 3
    frequency:    0.1216931751
  - # 4
    frequency:    2.1822411203
  - # 5
    frequency:    2.3543886166
  - # 6
    frequency:    2.7725707758
  - # 7
    frequency:    3.3082673869
  - # 8
    frequency:    4.0748735677
  - # 9
    frequency:    4.2017662440
  - # 10
    frequency:    4.2467871523
  - # 11
    frequency:    6.3899964630
  - # 12
    frequency:    6.5289614179
  - # 13
    frequency:    7.1944626598
  - # 14
    frequency:    7.2098817236
  - # 15
    frequency:    7.3340466126
  - # 16
    frequency:    8.1098919813
  - # 17
    frequency:    8.1212273787
  - # 18
    frequency:    8.2075220995
  - # 19
    frequency:    9.2458162733
  - # 20
    frequency:    9.3958323246
  - # 21
    frequency:    9.7148164994
  - # 22
    frequency:   10.3193637561
  - # 23
    frequency:   15.3285560900
  - # 24
    frequency:   15.4204163683

- q-position: [    0.0500000,    0.0000000,    0.0000000 ]
  distance:    0.0055552
  band:
  - # 1
    frequency:    0.0670777597
  - # 2
    frequency:    0.0788432507
  - # 3
    frequency:    0.1519128572
  - # 4
    frequency:    2.1787305429
  - # 5
    frequency:    2.3581988062
  - # 6
    frequency:    2.7718273776
  - # 7
    frequency:    3.3076668918
  - # 8
    frequency:    4.0751479412
  - # 9
    frequency:    4.2003025842
  - # 10
    frequency:    4.2466134208
  - # 11
    frequency:    6.3900884514
  - # 12
    frequency:    6.5290503598
  - # 13
    frequency:    7.1948133109
  - # 14
    frequency:    7.2098460150
  - # 15
    frequency:    7.3335175568
  - # 16
    frequency:    8.1092495185
  - # 17
    frequency:    8.1222858316
  - # 18
    frequency:    8.2072020810
  - # 19
    frequency:    9.2459680565
  - # 20
    frequency:    9.3957734687
  - # 21
    frequency:    9.7147632250
  - # 22
    frequency:   10.3217413790
  - # 23
    frequency:   15.3291537914
  - # 24
    frequency:   15.4206861880

- q-position: [    0.0600000,    0.0000000,    0.0000000 ]
  distance:    0.0066663
  band:
  - # 1
    frequency:    0.0803798047
  - # 2
    frequency:    0.0944803466
  - # 3
    frequency:    0.1819967080
  - # 4
    frequency:    2.1746479443
  - # 5
    frequency:    2.3626465535
  - # 6
    frequency:    2.7709237128
  - # 7
    frequency:    3.3069358589
  - # 8
    frequency:    4.0754818639
  - # 9
    frequency:    4.1985257087
  - # 10
    frequency:    4.2464016868
  - # 11
    frequency:    6.3902004085
  - # 12
    frequency:    6.5291582096
  - # 13
    frequency:    7.1952394131
  - # 14
    frequency:    7.2098046076
  - # 15
    frequency:    7.3328731414
  - # 16
    frequency:    8.1085318676
  - # 17
    frequency:    8.1235063345
  - # 18
    frequency:    8.2068180142
  - # 19
    frequency:    9.2461531410
  - # 20
    frequency:    9.3957015329
  - # 21
    frequency:    9.7146985998
  - # 22
    frequency:   10.3246239904
  - # 23
    frequency:   15.3298807165
  - # 24
    frequency:   15.4210126255

- q-position: [    0.0700000,    0.0000000,    0.0000000 ]
  distance:    0.0077773
  band:
  - # 1
    frequency:    0.0936196563
  - # 2
    frequency:    0.1100454091
  - # 3
    frequency:    0.2119176819
  - # 4
    frequency:    2.1700801098
  - # 5
    frequency:    2.3676444359
  - # 6
    frequency:    2.7698627321
  - # 7
    frequency:    3.3060760365
  - # 8
    frequency:    4.0758744821
  - # 9
    frequency:    4.1964427560
  - # 10
    frequency:    4.2461523183
  - # 11
    frequency:    6.3903320465
  - # 12
    frequency:    6.5292844624
  - # 13
    frequency:    7.1957394912
  - # 14
    frequency:    7.2097588242
  - # 15
    frequency:    7.3321146856
  - # 16
    frequency:    8.1077479999
  - # 17
    frequency:    8.1248766025
  - # 18
    frequency:    8.2063740162
  - # 19
    frequency:    9.2463712574
  - # 20
    frequency:    9.3956165170
  - # 21
    frequency:    9.7146229092
  - # 22
    frequency:   10.3279978488
  - # 23
    frequency:   15.3307347205
  - # 24
    frequency:   15.4213937025

- q-position: [    0.0800000,    0.0000000,    0.0000000 ]
  distance:    0.0088884
  band:
  - # 1
    frequency:    0.1067867845
  - # 2
    frequency:    0.1255262061
  - # 3
    frequency:    0.2416487807
  - # 4
    frequency:    2.1651079900
  - # 5
    frequency:    2.3731107388
  - # 6
    frequency:    2.7686479151
  - # 7
    frequency:    3.3050894957
  - # 8
    frequency:    4.0763247868
  - # 9
    frequency:    4.1940620843
  - # 10
    frequency:    4.2458657549
  - # 11
    frequency:    6.3904830213
  - # 12
    frequency:    6.5294285296
  - # 13
    frequency:    7.1963118090
  - # 14
    frequency:    7.2097102113
  - # 15
    frequency:    7.3312437433
  - # 16
    frequency:    8.1069026349
  - # 17
    frequency:    8.1263880278
  - # 18
    frequency:    8.2058748487
  - # 19
    frequency:    9.2466220758
  - # 20
    frequency:    9.3955184219
  - # 21
    frequency:    9.7145364843
  - # 22
    frequency:   10.3318469631
  - # 23
    frequency:   15.3317132820
  - # 24
    frequency:   15.4218271052

- q-position: [    0.0900000,    0.0000000,    0.0000000 ]
  distance:    0.0099994
  band:
  - # 1
    frequency:    0.1198705810
  - # 2
    frequency:    0.1409104050
  - # 3
    frequency:    0.2711630675
  - # 4
    frequency:    2.1598044254
  - # 5
    frequency:    2.3789717265
  - # 6
    frequency:    2.7672832650
  - # 7
    frequency:    3.3039786323
  - # 8
    frequency:    4.0768316134
  - # 9
    frequency:    4.1913932341
  - # 10
    frequency:    4.2455425107
  - # 11
    frequency:    6.3906529318
  - # 12
    frequency:    6.5295897426
  - # 13
    frequency:    7.1969543729
  - # 14
    frequency:    7.2096605305
  - # 15
    frequency:    7.3302621001
  - # 16
    frequency:    8.1059982195
  - # 17
    frequency:    8.1280337109
  - # 18
    frequency:    8.2053258727
  - # 19
    frequency:    9.2469052010
  - # 20
    frequency:    9.3954072504
  - # 21
    frequency:    9.7144396992
  - # 22
    frequency:   10.3361532102
  - # 23
    frequency:   15.3328135088
  - # 24
    frequency:   15.4223101962

- q-position: [    0.1000000,    0.0000000,    0.0000000 ]
  distance:    0.0111104
  band:
  - # 1
    frequency:    0.1328603517
  - # 2
    frequency:    0.1561855616
  - # 3
    frequency:    0.3004336786
  - # 4
    frequency:    2.1542334297
  - # 5
    frequency:    2.3851623527
  - # 6
    frequency:    2.7657733041
  - # 7
    frequency:    3.3027461702
  - # 8
    frequency:    4.0773936415
  - # 9
    frequency:    4.1884468854
  - # 10
    frequency:    4.2451831766
  - # 11
    frequency:    6.3908413174
  - # 12
    frequency:    6.5297673575
  - # 13
    frequency:    7.1976649358
  - # 14
    frequency:    7.2096117489
  - # 15
    frequency:    7.3291717704
  - # 16
    frequency:    8.1050361759
  - # 17
    frequency:    8.1298072206
  - # 18
    frequency:    8.2047330047
  - # 19
    frequency:    9.2472201668
  - # 20
    frequency:    9.3952830092
  - # 21
    frequency:    9.7143329679
  - # 22
    frequency:   10.3408964642
  - # 23
    frequency:   15.3340321461
  - # 24
    frequency:   15.4228400287

- q-position: [    0.1100000,    0.0000000,    0.0000000 ]
  distance:    0.0122215
  band:
  - # 1
    frequency:    0.1457453099
  - # 2
    frequency:    0.1713391097
  - # 3
    frequency:    0.3294338343
  - # 4
    frequency:    2.1484504513
  - # 5
    frequency:    2.3916259925
  - # 6
    frequency:    2.7641230671
  - # 7
    frequency:    3.3013951648
  - # 8
    frequency:    4.0780093951
  - # 9
    frequency:    4.1852348104
  - # 10
    frequency:    4.2447884237
  - # 11
    frequency:    6.3910476571
  - # 12
    frequency:    6.5299605596
  - # 13
    frequency:    7.1984410023
  - # 14
    frequency:    7.2095660282
  - # 15
    frequency:    7.3279749939
  - # 16
    frequency:    8.1040176336
  - # 17
    frequency:    8.1317018664
  - # 18
    frequency:    8.2041026736
  - # 19
    frequency:    9.2475664288
  - # 20
    frequency:    9.3951457118
  - # 21
    frequency:    9.7142167416
  - # 22
    frequency:   10.3460547366
  - # 23
    frequency:   15.3353655840
  - # 24
    frequency:   15.4234133616

- q-position: [    0.1200000,    0.0000000,    0.0000000 ]
  distance:    0.0133325
  band:
  - # 1
    frequency:    0.1585145698
  - # 2
    frequency:    0.1863583526
  - # 3
    frequency:    0.3581368509
  - # 4
    frequency:    2.1425031527
  - # 5
    frequency:    2.3983136554
  - # 6
    frequency:    2.7623380939
  - # 7
    frequency:    3.2999290069
  - # 8
    frequency:    4.0786772419
  - # 9
    frequency:    4.1817698219
  - # 10
    frequency:    4.2443590069
  - # 11
    frequency:    6.3912713674
  - # 12
    frequency:    6.5301684689
  - # 13
    frequency:    7.1992798344
  - # 14
    frequency:    7.2095257129
  - # 15
    frequency:    7.3266742313
  - # 16
    frequency:    8.1029438360
  - # 17
    frequency:    8.1337102912
  - # 18
    frequency:    8.2034417837
  - # 19
    frequency:    9.2479433585
  - # 20
    frequency:    9.3949953813
  - # 21
    frequency:    9.7140915056
  - # 22
    frequency:   10.3516043255
  - # 23
    frequency:   15.3368098674
  - # 24
    frequency:   15.4240266766

- q-position: [    0.1300000,    0.0000000,    0.0000000 ]
  distance:    0.0144436
  band:
  - # 1
    frequency:    0.1711571415
  - # 2
    frequency:    0.2012304558
  - # 3
    frequency:    0.3865161512
  - # 4
    frequency:    2.1364323997
  - # 5
    frequency:    2.4051829879
  - # 6
    frequency:    2.7604244215
  - # 7
    frequency:    3.2983514272
  - # 8
    frequency:    4.0793953930
  - # 9
    frequency:    4.1780657185
  - # 10
    frequency:    4.2438957685
  - # 11
    frequency:    6.3915118011
  - # 12
    frequency:    6.5303901452
  - # 13
    frequency:    7.2001784570
  - # 14
    frequency:    7.2094933177
  - # 15
    frequency:    7.3252721602
  - # 16
    frequency:    8.1018163511
  - # 17
    frequency:    8.1358242510
  - # 18
    frequency:    8.2027576861
  - # 19
    frequency:    9.2483502362
  - # 20
    frequency:    9.3948320550
  - # 21
    frequency:    9.7139577763
  - # 22
    frequency:   10.3575199709
  - # 23
    frequency:   15.3383607052
  - # 24
    frequency:   15.4246761973

- q-position: [    0.1400000,    0.0000000,    0.0000000 ]
  distance:    0.0155546
  band:
  - # 1
    frequency:    0.1836619268
  - # 2
    frequency:    0.2159424415
  - # 3
    frequency:    0.4145452775
  - # 4
    frequency:    2.1302732766
  - # 5
    frequency:    2.4121972497
  - # 6
    frequency:    2.7583885738
  - # 7
    frequency:    3.2966665015
  - # 8
    frequency:    4.0801619025
  - # 9
    frequency:    4.1741372251
  - # 10
    frequency:    4.2433996430
  - # 11
    frequency:    6.3917682460
  - # 12
    frequency:    6.5306245939
  - # 13
    frequency:    7.2011336657
  - # 14
    frequency:    7.2094715129
  - # 15
    frequency:    7.3237716700
  - # 16
    frequency:    8.1006371675
  - # 17
    frequency:    8.1380344978
  - # 18
    frequency:    8.2020581642
  - # 19
    frequency:    9.2487862436
  - # 20
    frequency:    9.3946557897
  - # 21
    frequency:    9.7138160988
  - # 22
    frequency:   10.3637750147
  - # 23
    frequency:   15.3400134813
  - # 24
    frequency:   15.4253579095

- q-position: [    0.1500000,    0.0000000,    0.0000000 ]
  distance:    0.0166657
  band:
  - # 1
    frequency:    0.1960177174
  - # 2
    frequency:    0.2304811847
  - # 3
    frequency:    0.4421979030
  - # 4
    frequency:    2.1240560319
  - # 5
    frequency:    2.4193243583
  - # 6
    frequency:    2.7562375506
  - # 7
    frequency:    3.2948786561
  - # 8
    frequency:    4.0809746671
  - # 9
    frequency:    4.1699999316
  - # 10
    frequency:    4.2428716613
  - # 11
    frequency:    6.3920399236
  - # 12
    frequency:    6.5308707720
  - # 13
    frequency:    7.2021420339
  - # 14
    frequency:    7.2094631098
  - # 15
    frequency:    7.3221758564
  - # 16
    frequency:    8.0994087251
  - # 17
    frequency:    8.1403307117
  - # 18
    frequency:    8.2013514369
  - # 19
    frequency:    9.2492504569
  - # 20
    frequency:    9.3944666678
  - # 21
    frequency:    9.7136670436
  - # 22
    frequency:   10.3703415641
  - # 23
    frequency:   15.3417632658
  - # 24
    frequency:   15.4260675828

- q-position: [    0.1600000,    0.0000000,    0.0000000 ]
  distance:    0.0177767
  band:
  - # 1
    frequency:    0.2082131934
  - # 2
    frequency:    0.2448334120
  - # 3
    frequency:    0.4694478455
  - # 4
    frequency:    2.1178069130
  - # 5
    frequency:    2.4265360443
  - # 6
    frequency:    2.7539788152
  - # 7
    frequency:    3.2929926744
  - # 8
    frequency:    4.0818314252
  - # 9
    frequency:    4.1656702279
  - # 10
    frequency:    4.2423129558
  - # 11
    frequency:    6.3923259891
  - # 12
    frequency:    6.5311275939
  - # 13
    frequency:    7.2031999216
  - # 14
    frequency:    7.2094710448
  - # 15
    frequency:    7.3204880157
  - # 16
    frequency:    8.0981339102
  - # 17
    frequency:    8.1427014471
  - # 18
    frequency:    8.2006461868
  - # 19
    frequency:    9.2497418395
  - # 20
    frequency:    9.3942648043
  - # 21
    frequency:    9.7135112048
  - # 22
    frequency:   10.3771906558
  - # 23
    frequency:   15.3436048270
  - # 24
    frequency:   15.4268007942

- q-position: [    0.1700000,    0.0000000,    0.0000000 ]
  distance:    0.0188877
  band:
  - # 1
    frequency:    0.2202369247
  - # 2
    frequency:    0.2589857017
  - # 3
    frequency:    0.4962690810
  - # 4
    frequency:    2.1115488807
  - # 5
    frequency:    2.4338071270
  - # 6
    frequency:    2.7516202793
  - # 7
    frequency:    3.2910137030
  - # 8
    frequency:    4.0827297561
  - # 9
    frequency:    4.1611652376
  - # 10
    frequency:    4.2417247658
  - # 11
    frequency:    6.3926255302
  - # 12
    frequency:    6.5313939380
  - # 13
    frequency:    7.2043034844
  - # 14
    frequency:    7.2094983628
  - # 15
    frequency:    7.3187116384
  - # 16
    frequency:    8.0968160313
  - # 17
    frequency:    8.1451340704
  - # 18
    frequency:    8.1999516213
  - # 19
    frequency:    9.2502592361
  - # 20
    frequency:    9.3940503545
  - # 21
    frequency:    9.7133491971
  - # 22
    frequency:   10.3842924197
  - # 23
    frequency:   15.3455326437
  - # 24
    frequency:   15.4275529533

- q-position: [    0.1800000,    0.0000000,    0.0000000 ]
  distance:    0.0199988
  band:
  - # 1
    frequency:    0.2320773733
  - # 2
    frequency:    0.2729244867
  - # 3
    frequency:    0.5226357574
  - # 4
    frequency:    2.1053022075
  - # 5
    frequency:    2.4411149043
  - # 6
    frequency:    2.7491702877
  - # 7
    frequency:    3.2889472593
  - # 8
    frequency:    4.0836670795
  - # 9
    frequency:    4.1565027485
  - # 10
    frequency:    4.2411084429
  - # 11
    frequency:    6.3929375681
  - # 12
    frequency:    6.5316686523
  - # 13
    frequency:    7.2054486841
  - # 14
    frequency:    7.2095481998
  - # 15
    frequency:    7.3168504020
  - # 16
    frequency:    8.0954587853
  - # 17
    frequency:    8.1476146695
  - # 18
    frequency:    8.1992775734
  - # 19
    frequency:    9.2508013654
  - # 20
    frequency:    9.3938235225
  - # 21
    frequency:    9.7131816540
  - # 22
    frequency:   10.3916162409
  - # 23
    frequency:   15.3475409180
  - # 24
    frequency:   15.4283193282

- q-position: [    0.1900000,    0.0000000,    0.0000000 ]
  distance:    0.0211098
  band:
  - # 1
    frequency:    0.2437228984
  - # 2
    frequency:    0.2866360602
  - # 3
    frequency:    0.5485222105
  - # 4
    frequency:    2.0990849748
  - # 5
    frequency:    2.4484386457
  - # 6
    frequency:    2.7466375993
  - # 7
    frequency:    3.2867992381
  - # 8
    frequency:    4.0846406541
  - # 9
    frequency:    4.1517011425
  - # 10
    frequency:    4.2404654571
  - # 11
    frequency:    6.3932610577
  - # 12
    frequency:    6.5319505609
  - # 13
    frequency:    7.2066312992
  - # 14
    frequency:    7.2096237645
  - # 15
    frequency:    7.3149081643
  - # 16
    frequency:    8.0940662205
  - # 17
    frequency:    8.1501279218
  - # 18
    frequency:    8.1986346545
  - # 19
    frequency:    9.2513668151
  - # 20
    frequency:    9.3935845701
  - # 21
    frequency:    9.7130092254
  - # 22
    frequency:   10.3991309190
  - # 23
    frequency:   15.3496235884
  - # 24
    frequency:   15.4290950733

- q-position: [    0.2000000,    0.0000000,    0.0000000 ]
  distance:    0.0222209
  band:
  - # 1
    frequency:    0.2551617632
  - # 2
    frequency:    0.3001065833
  - # 3
    frequency:    0.5739029795
  - # 4
    frequency:    2.0929134805
  - # 5
    frequency:    2.4557591729
  - # 6
    frequency:    2.7440313674
  - # 7
    frequency:    3.2845759194
  - # 8
    frequency:    4.0856475772
  - # 9
    frequency:    4.1467793232
  - # 10
    frequency:    4.2397974027
  - # 11
    frequency:    6.3935948887
  - # 12
    frequency:    6.5322384697
  - # 13
    frequency:    7.2078469372
  - # 14
    frequency:    7.2097283199
  - # 15
    frequency:    7.3128889549
  - # 16
    frequency:    8.0926426983
  - # 17
    frequency:    8.1526569069
  - # 18
    frequency:    8.1980344675
  - # 19
    frequency:    9.2519540362
  - # 20
    frequency:    9.3933338260
  - # 21
    frequency:    9.7128325760
  - # 22
    frequency:   10.4068048226
  - # 23
    frequency:   15.3517743428
  - # 24
    frequency:   15.4298752590

- q-position: [    0.2100000,    0.0000000,    0.0000000 ]
  distance:    0.0233319
  band:
  - # 1
    frequency:    0.2663821438
  - # 2
    frequency:    0.3133220959
  - # 3
    frequency:    0.5987528241
  - # 4
    frequency:    2.0868025749
  - # 5
    frequency:    2.4630585138
  - # 6
    frequency:    2.7413611169
  - # 7
    frequency:    3.2822839758
  - # 8
    frequency:    4.0866847829
  - # 9
    frequency:    4.1417566434
  - # 10
    frequency:    4.2391060045
  - # 11
    frequency:    6.3939378878
  - # 12
    frequency:    6.5325311727
  - # 13
    frequency:    7.2090910473
  - # 14
    frequency:    7.2098651639
  - # 15
    frequency:    7.3107969672
  - # 16
    frequency:    8.0911928557
  - # 17
    frequency:    8.1551828566
  - # 18
    frequency:    8.1974898873
  - # 19
    frequency:    9.2525613396
  - # 20
    frequency:    9.3930716948
  - # 21
    frequency:    9.7126523830
  - # 22
    frequency:   10.4146060397
  - # 23
    frequency:   15.3539866317
  - # 24
    frequency:   15.4306549017

- q-position: [    0.2200000,    0.0000000,    0.0000000 ]
  distance:    0.0244430
  band:
  - # 1
    frequency:    0.2773721409
  - # 2
    frequency:    0.3262685303
  - # 3
    frequency:    0.6230467425
  - # 4
    frequency:    2.0807659339
  - # 5
    frequency:    2.4703196184
  - # 6
    frequency:    2.7386367196
  - # 7
    frequency:    3.2799304786
  - # 8
    frequency:    4.0877490419
  - # 9
    frequency:    4.1366528307
  - # 10
    frequency:    4.2383931245
  - # 11
    frequency:    6.3942888212
  - # 12
    frequency:    6.5328274576
  - # 13
    frequency:    7.2100376096
  - # 14
    frequency:    7.2103589346
  - # 15
    frequency:    7.3086365493
  - # 16
    frequency:    8.0897215694
  - # 17
    frequency:    8.1576848442
  - # 18
    frequency:    8.1970154058
  - # 19
    frequency:    9.2531868919
  - # 20
    frequency:    9.3927986666
  - # 21
    frequency:    9.7124693346
  - # 22
    frequency:   10.4225025220
  - # 23
    frequency:   15.3562536811
  - # 24
    frequency:   15.4314289965

- q-position: [    0.2300000,    0.0000000,    0.0000000 ]
  distance:    0.0255540
  band:
  - # 1
    frequency:    0.2881197936
  - # 2
    frequency:    0.3389317278
  - # 3
    frequency:    0.6467599907
  - # 4
    frequency:    2.0748162834
  - # 5
    frequency:    2.4775261254
  - # 6
    frequency:    2.7358683668
  - # 7
    frequency:    3.2775229048
  - # 8
    frequency:    4.0888369598
  - # 9
    frequency:    4.1314879134
  - # 10
    frequency:    4.2376607678
  - # 11
    frequency:    6.3946463970
  - # 12
    frequency:    6.5331261115
  - # 13
    frequency:    7.2102489652
  - # 14
    frequency:    7.2116457742
  - # 15
    frequency:    7.3064121953
  - # 16
    frequency:    8.0882339206
  - # 17
    frequency:    8.1601394412
  - # 18
    frequency:    8.1966275137
  - # 19
    frequency:    9.2538287139
  - # 20
    frequency:    9.3925153252
  - # 21
    frequency:    9.7122841282
  - # 22
    frequency:   10.4304622232
  - # 23
    frequency:   15.3585685046
  - # 24
    frequency:   15.4321925506

- q-position: [    0.2400000,    0.0000000,    0.0000000 ]
  distance:    0.0266651
  band:
  - # 1
    frequency:    0.2986130958
  - # 2
    frequency:    0.3512974588
  - # 3
    frequency:    0.6698681029
  - # 4
    frequency:    2.0689655820
  - # 5
    frequency:    2.4846621708
  - # 6
    frequency:    2.7330665394
  - # 7
    frequency:    3.2750691410
  - # 8
    frequency:    4.0899449773
  - # 9
    frequency:    4.1262821449
  - # 10
    frequency:    4.2369110890
  - # 11
    frequency:    6.3950092697
  - # 12
    frequency:    6.5334259259
  - # 13
    frequency:    7.2105025136
  - # 14
    frequency:    7.2129466277
  - # 15
    frequency:    7.3041285347
  - # 16
    frequency:    8.0867351621
  - # 17
    frequency:    8.1625204171
  - # 18
    frequency:    8.1963450418
  - # 19
    frequency:    9.2544846796
  - # 20
    frequency:    9.3922223563
  - # 21
    frequency:    9.7120974682
  - # 22
    frequency:   10.4384532304
  - # 23
    frequency:   15.3609239150
  - # 24
    frequency:   15.4329406188

- q-position: [    0.2500000,    0.0000000,    0.0000000 ]
  distance:    0.0277761
  band:
  - # 1
    frequency:    0.3088400151
  - # 2
    frequency:    0.3633514453
  - # 3
    frequency:    0.6923469136
  - # 4
    frequency:    2.0632251697
  - # 5
    frequency:    2.4917122325
  - # 6
    frequency:    2.7302419753
  - # 7
    frequency:    3.2725774874
  - # 8
    frequency:    4.0910693690
  - # 9
    frequency:    4.1210559286
  - # 10
    frequency:    4.2361463983
  - # 11
    frequency:    6.3953760442
  - # 12
    frequency:    6.5337257024
  - # 13
    frequency:    7.2108014920
  - # 14
    frequency:    7.2142564598
  - # 15
    frequency:    7.3017903231
  - # 16
    frequency:    8.0852306868
  - # 17
    frequency:    8.1647986507
  - # 18
    frequency:    8.1961892945
  - # 19
    frequency:    9.2551525162
  - # 20
    frequency:    9.3919205548
  - # 21
    frequency:    9.7119100648
  - # 22
    frequency:   10.4464438892
  - # 23
    frequency:   15.3633125351
  - # 24
    frequency:   15.4336683405

- q-position: [    0.2600000,    0.0000000,    0.0000000 ]
  distance:    0.0288871
  band:
  - # 1
    frequency:    0.3187885148
  - # 2
    frequency:    0.3750793877
  - # 3
    frequency:    0.7141725813
  - # 4
    frequency:    2.0576058892
  - # 5
    frequency:    2.4986610036
  - # 6
    frequency:    2.7274056342
  - # 7
    frequency:    3.2700566580
  - # 8
    frequency:    4.0922062440
  - # 9
    frequency:    4.1158297426
  - # 10
    frequency:    4.2353691667
  - # 11
    frequency:    6.3957452809
  - # 12
    frequency:    6.5340242569
  - # 13
    frequency:    7.2111490710
  - # 14
    frequency:    7.2155701556
  - # 15
    frequency:    7.2994024313
  - # 16
    frequency:    8.0837259965
  - # 17
    frequency:    8.1669425527
  - # 18
    frequency:    8.1961836750
  - # 19
    frequency:    9.2558298065
  - # 20
    frequency:    9.3916108307
  - # 21
    frequency:    9.7117226315
  - # 22
    frequency:   10.4544029218
  - # 23
    frequency:   15.3657268059
  - # 24
    frequency:   15.4343709795

- q-position: [    0.2700000,    0.0000000,    0.0000000 ]
  distance:    0.0299982
  band: