144  
16   

1    
  0.0085917615255254   0.0051167991839138   0.0000000000000000
  -0.0867378085   -0.0340421153    0.0005265871
   0.0001440735   -0.0000007115    0.0003303662
  -0.0013164901    0.0048169329    0.0004429719
   0.0001639087   -0.0000047418    0.0003346931
  -0.0012194768    0.0046739126    0.0004296853
   0.0001591426    0.0000040635    0.0003295445
  -0.0011952785   -0.0003100482    0.0020762568
   0.0001110831   -0.0000075031    0.0002615808
  -0.0001259000    0.0000951242    0.0003497569
   0.0001141982    0.0000084107    0.0002496808
  -0.0001247381    0.0000480162    0.0002507300
   0.0001129833    0.0000082101    0.0002542252
  -0.0011899180   -0.0003177834   -0.0006534591
   0.0001096929   -0.0000039401    0.0003235892
  -0.0001381019    0.0000861029    0.0004052204
   0.0001134604   -0.0000083257    0.0003281426
  -0.0001138975    0.0000751543    0.0005033720
   0.0001144025    0.0000160913    0.0003256303
   0.0000343579    0.0000069496   -0.0003112107
  -0.0002362217   -0.0007928843    0.0003523087
   0.0000409254   -0.0000169234   -0.0003094385
  -0.0002469594    0.0000404602   -0.0001915894
   0.0000289663   -0.0000047530   -0.0003046168
   0.0012106010    0.0016416728    0.0054787539
   0.0001101692    0.0000057861   -0.0003324104
  -0.0009029230    0.0002670358    0.0001803560
   0.0001268745   -0.0000424743   -0.0003257591
  -0.0003003496    0.0000402387   -0.0004115651
   0.0000931029   -0.0000012584   -0.0003435917
  -0.0007230187    0.0005671652   -0.0051282475
  -0.0000135864   -0.0000041770   -0.0003314005
  -0.0001456178    0.0002128229   -0.0002383645
  -0.0000108620    0.0000195645   -0.0003376273
  -0.0001498843    0.0003455014   -0.0002585525
  -0.0000137454   -0.0000127898   -0.0003312117
  -0.0003765134   -0.0003240395   -0.0001990962
  -0.0005921314   -0.0000005320    0.0008984182
  -0.0007716429   -0.0000146637    0.0008303314
  -0.0005875921    0.0000127635    0.0009029922
  -0.0006489745    0.0000538425    0.0009531524
  -0.0005951797   -0.0000055737    0.0009060442
  -0.0007132966    0.0000079488    0.0009020073
  -0.0005779928    0.0000034495    0.0008758854
   0.0037564763   -0.0011112723    0.0014094032
  -0.0005874087   -0.0000169918    0.0008611057
  -0.0001411602   -0.0001030207    0.0006954636
  -0.0005800303    0.0000019076    0.0008854891
   0.0014040093    0.0041903643    0.0003037529
  -0.0005898301   -0.0000332118    0.0008938761
  -0.0008079251   -0.0001397948    0.0008803568
  -0.0005814138    0.0000690520    0.0009005149
  -0.0006780907    0.0000311686    0.0010160236
  -0.0005817262   -0.0000326478    0.0009031816
  -0.0006961947    0.0000040386    0.0008850286
   0.0033947544    0.0014950038    0.0027169349
   0.0007492340   -0.0000489856   -0.0011306518
   0.0005630060   -0.0000305945   -0.0009842205
   0.0007659803    0.0000414410   -0.0011422000
   0.0015849076   -0.0013855799    0.0008486305
   0.0007797613    0.0000225573   -0.0011688195
   0.0005102689   -0.0000308225   -0.0013193780
   0.0006135375    0.0000179257   -0.0009243806
   0.0006368003    0.0001961076   -0.0008989412
   0.0006142111    0.0000108074   -0.0009279975
   0.0005610516    0.0000716245   -0.0011235483
   0.0006094965    0.0000155245   -0.0009288490
   0.0009566177    0.0006880754   -0.0025431932
   0.0006316064    0.0000100220   -0.0009503478
   0.0006152374    0.0002106564   -0.0008822329
   0.0006319627   -0.0000356168   -0.0009504363
   0.0007935088   -0.0005475860   -0.0017373201
   0.0006238225   -0.0000040705   -0.0009573829
   0.0005362532    0.0000041535    0.0003406713
   0.0052790504   -0.0011224115   -0.0011682350
   0.0005606319   -0.0000108648    0.0003426420
   0.0006958098    0.0002195526    0.0001832392
   0.0005371244    0.0000068778    0.0003297103
   0.0023116457    0.0039572124    0.0001931824
   0.0005113682    0.0000177739    0.0002954068
   0.0003956477   -0.0000130365    0.0004235242
   0.0005179329    0.0000039214    0.0002914383
   0.0004616268    0.0000556550    0.0003124861
   0.0005186647   -0.0000243569    0.0002910722
   0.0004056959    0.0000080426    0.0003926566
   0.0005175096    0.0000036084    0.0003253892
   0.0003680136   -0.0001404275    0.0003990364
   0.0005271570   -0.0000092340    0.0003100260
   0.0004188461    0.0000620784    0.0002443919
   0.0005313151   -0.0000033302    0.0003080283
   0.0004568564    0.0000478131    0.0003530450
   0.0009589961    0.0010941399   -0.0042147209
  -0.0004268534   -0.0000016867   -0.0002608311
  -0.0005456425   -0.0000447867   -0.0001975556
  -0.0004203621    0.0000454630   -0.0002590742
  -0.0002841830   -0.0009974438   -0.0020224892
  -0.0004363003   -0.0000005535   -0.0002547814
   0.0004111527    0.0010438882    0.0012169881
  -0.0004371890    0.0000270265   -0.0001378910
  -0.0004670386    0.0001968602   -0.0003749136
  -0.0004434455   -0.0000290724   -0.0001225334
   0.0000659291   -0.0008876151    0.0004383245
  -0.0004655916   -0.0000183826   -0.0000995981
  -0.0004694869    0.0001493082    0.0001366944
  -0.0004727824    0.0000084362   -0.0002959565
  -0.0004710654    0.0001958635   -0.0003061322
  -0.0004750364   -0.0000232256   -0.0002940595
  -0.0004729263   -0.0001460202   -0.0000694741
  -0.0004749142    0.0000138777   -0.0002930499
   0.0089012725    0.0034677595    0.0003508926
  -0.0002271152    0.0000062097   -0.0001292116
   0.0005981716   -0.0007385135    0.0002257324
  -0.0002344785    0.0000057136   -0.0001287389
   0.0010632355    0.0001570974   -0.0003738790
  -0.0002196343    0.0000027402   -0.0001226067
   0.0110538302    0.0034926270    0.0027982745
  -0.0003909037    0.0000002260    0.0000132871
   0.0004575934   -0.0010282334   -0.0004328580
  -0.0004181135    0.0000216558   -0.0000082591
   0.0010581176    0.0004422644    0.0000305336
  -0.0003523842    0.0000118696   -0.0000126715
  -0.0001056501    0.0000167724   -0.0002367776
  -0.0001043127   -0.0000275474   -0.0000710744
   0.0000171769   -0.0005903000   -0.0001523292
  -0.0000619365    0.0000094498   -0.0000763511
   0.0000737113   -0.0000514752   -0.0001651485
  -0.0001387948    0.0000103906   -0.0000680823
  -0.0001309498    0.0000001885    0.0000829254
   0.0153023972   -0.0075063693   -0.0008256367
  -0.0001341121    0.0000010902    0.0000847132
   0.0022616449   -0.0046622355   -0.0001610776
  -0.0001215910    0.0000192955    0.0000874817
   0.0310696103    0.0216277422   -0.0027758840
  -0.0000621445   -0.0000054445    0.0001610203
   0.0005363188   -0.0000381468   -0.0001323531
  -0.0000678574   -0.0000067277    0.0001472040
   0.0002851240   -0.0002200140    0.0001168892
  -0.0000514230   -0.0000028745    0.0001577890
   0.0005036544    0.0007540353    0.0006976779
  -0.0000553971    0.0000042620    0.0000966133
   0.0004866819   -0.0000835893    0.0000544678
  -0.0000599124   -0.0000082610    0.0000963910
   0.0002600118   -0.0002351852   -0.0000518262
  -0.0000522954    0.0000028932    0.0000948049
   0.0002637317    0.0007634666   -0.0007525942

1    
 -0.0085917615255254  -0.0051167991839138   0.0000000000000000
   0.0882341164    0.0355339171   -0.0003047924
  -0.0000610561    0.0000004933    0.0002998322
   0.0013905713   -0.0047644453    0.0001875978
  -0.0000801202    0.0000045575    0.0002964129
   0.0013243025   -0.0046989303    0.0001968685
  -0.0000763133   -0.0000004039    0.0002999915
   0.0012810359    0.0003184701   -0.0014468105
  -0.0000274048   -0.0000023377    0.0003696910
   0.0002111044   -0.0000938771    0.0002793357
  -0.0000299318   -0.0000089655    0.0003814198
   0.0002111191   -0.0000484080    0.0003808645
  -0.0000295754   -0.0000047950    0.0003768768
   0.0012844142    0.0003194778    0.0012981951
  -0.0000267094    0.0000054165    0.0003072362
   0.0002222875   -0.0000892124    0.0002261336
  -0.0000293986    0.0000091165    0.0003025197
   0.0002000410   -0.0000746733    0.0001267257
  -0.0000308812   -0.0000164947    0.0003049662
  -0.0001199886   -0.0000076918   -0.0003190718
   0.0001645116    0.0007726206   -0.0009432291
  -0.0001273500    0.0000209633   -0.0003211075
   0.0001636587   -0.0000454201   -0.0004423807
  -0.0001138497    0.0000023571   -0.0003257514
  -0.0013248486   -0.0016804003   -0.0061791195
  -0.0001951521   -0.0000042684   -0.0002983234
   0.0008172210   -0.0002891950   -0.0008378710
  -0.0002135494    0.0000390611   -0.0003049358
   0.0002176246   -0.0000469349   -0.0002156485
  -0.0001812299    0.0000008963   -0.0002859152
   0.0006355135   -0.0005912233    0.0045517924
  -0.0000715687    0.0000034579   -0.0002985729
   0.0000599856   -0.0002186794   -0.0003897441
  -0.0000742825   -0.0000200033   -0.0002922794
   0.0000655360   -0.0003492409   -0.0003711430
  -0.0000717096    0.0000129222   -0.0002986844
   0.0002946043    0.0003286944   -0.0004310809
  -0.0006302977    0.0000005613    0.0009954671
  -0.0004494043    0.0000159377    0.0010640204
  -0.0006346610   -0.0000124759    0.0009906625
  -0.0005714171   -0.0000564172    0.0009400543
  -0.0006271574    0.0000054405    0.0009877278
  -0.0005069925   -0.0000080808    0.0009918973
  -0.0006445051   -0.0000030236    0.0010180407
  -0.0050568379    0.0011380570    0.0004796578
  -0.0006352863    0.0000167276    0.0010319850
  -0.0010771487    0.0000695635    0.0011950541
  -0.0006422210   -0.0000016759    0.0010083017
  -0.0026639020   -0.0042511920    0.0016083427
  -0.0006324706    0.0000480438    0.0009992758
  -0.0004115475    0.0001342250    0.0010139947
  -0.0006404378   -0.0000685798    0.0009925625
  -0.0005448671   -0.0000316534    0.0008770957
  -0.0006408080    0.0000329673    0.0009899372
  -0.0005253611   -0.0000054599    0.0010091690
  -0.0020874978   -0.0014662871   -0.0045351770
   0.0004711540    0.0000493684   -0.0007605071
   0.0006588748    0.0000481549   -0.0009088431
   0.0004544868   -0.0000772836   -0.0007491476
  -0.0003652862    0.0013808989   -0.0027302784
   0.0004382424   -0.0000224454   -0.0007207365
   0.0007091430    0.0000331830   -0.0005829837
   0.0006075046   -0.0000181330   -0.0009683125
   0.0005839247   -0.0002008206   -0.0009926304
   0.0006068009   -0.0000108304   -0.0009646108
   0.0006619973   -0.0000698498   -0.0007709377
   0.0006116954   -0.0000164343   -0.0009638462
   0.0002675018   -0.0006712254    0.0006071122
   0.0005895719   -0.0000107007   -0.0009425937
   0.0006067405   -0.0002103932   -0.0010117315
   0.0005889914    0.0000024119   -0.0009426295
   0.0004245279    0.0005546409   -0.0001604858
   0.0005973753    0.0000038313   -0.0009350816
   0.0004290813   -0.0000049199    0.0002034990
  -0.0044213012    0.0011484236    0.0017298725
   0.0004054365    0.0000101312    0.0002020053
   0.0002787081   -0.0002504973    0.0003638237
   0.0004283635   -0.0000069854    0.0002145886
  -0.0013739178   -0.0040012308    0.0003512304
   0.0004548308   -0.0000171102    0.0002499017
   0.0005712265    0.0000215218    0.0001206270
   0.0004485511   -0.0000059648    0.0002538666
   0.0005060162   -0.0000567100    0.0002331322
   0.0004473738    0.0000247004    0.0002540582
   0.0005626090   -0.0000072985    0.0001509820
   0.0004486346   -0.0000035008    0.0002191083
   0.0006016600    0.0001437261    0.0001443931
   0.0004386732    0.0000096151    0.0002347850
   0.0005477090   -0.0000642622    0.0003015999
   0.0004347933    0.0000036067    0.0002365784
   0.0005094465   -0.0000481408    0.0001915166
  -0.0018811326   -0.0010799916    0.0035991721
  -0.0005408345    0.0000024901   -0.0002840525
  -0.0004211078    0.0000418565   -0.0003470537
  -0.0005465114   -0.0000113203   -0.0002856247
  -0.0006935805    0.0010020147    0.0014742342
  -0.0005319249    0.0000008683   -0.0002898997
  -0.0013607226   -0.0010229010   -0.0017168124
  -0.0005289497   -0.0000266928   -0.0004081662
  -0.0004985078   -0.0002177489   -0.0001692857
  -0.0005236821    0.0000722950   -0.0004236486
  -0.0010304618    0.0008863834   -0.0009765461
  -0.0005028992    0.0000185497   -0.0004475213
  -0.0004965909   -0.0001489329   -0.0006713863
  -0.0004943945   -0.0000081108   -0.0002486446
  -0.0004957264   -0.0001964188   -0.0002390059
  -0.0004921667    0.0000227344   -0.0002505193
  -0.0004928767    0.0001487209   -0.0004743152
  -0.0004921760   -0.0000145432   -0.0002516605
  -0.0090664752   -0.0034709719   -0.0004676507
   0.0000763180   -0.0000058397   -0.0000607447
  -0.0007424079    0.0007578482   -0.0004165815
   0.0000855964   -0.0000082525   -0.0000625402
  -0.0012200165   -0.0001611809    0.0001889131
   0.0000677518   -0.0000029811   -0.0000659062
  -0.0111800473   -0.0034995601   -0.0028959723
   0.0002456358   -0.0000023166   -0.0002065239
  -0.0006052145    0.0010460275    0.0002471013
   0.0002673405   -0.0000233070   -0.0001830083
  -0.0012183391   -0.0004413611   -0.0002223983
   0.0002116124   -0.0000123676   -0.0001813023
  -0.0000354588   -0.0000214700    0.0000460997
  -0.0000452469    0.0000279831   -0.0001192752
  -0.0001582180    0.0005899663   -0.0000356361
  -0.0000881030   -0.0000093228   -0.0001145492
  -0.0002172161    0.0000505334   -0.0000226817
  -0.0000104346   -0.0000094369   -0.0001227032
   0.0002780216    0.0000020491    0.0001058203
  -0.0150121069    0.0075546488    0.0010197943
   0.0002806475   -0.0000021607    0.0001043609
  -0.0021010288    0.0046827866    0.0003514756
   0.0002682709   -0.0000199259    0.0001018069
  -0.0323472875   -0.0230659834    0.0031575416
   0.0001973611   -0.0000018881    0.0000274199
  -0.0003875866    0.0000406920    0.0003207687
   0.0002131689    0.0000037230    0.0000399097
  -0.0001334325    0.0002244862    0.0000640376
   0.0002036289   -0.0000056184    0.0000275488
  -0.0003540107   -0.0007628876   -0.0005184591
   0.0002046939   -0.0000025483    0.0000951422
  -0.0003409859    0.0000790962    0.0001281924
   0.0002089522    0.0000078356    0.0000953936
  -0.0001076880    0.0002412869    0.0002461002
   0.0002016286   -0.0000031342    0.0000968183
  -0.0001161257   -0.0007786776    0.0009470322

1    
  0.0011971332654653   0.0000000000000000   0.0099280850089389
  -0.0123420769   -0.0000001429   -0.0964225462
   0.0000812450    0.0000000716    0.0002624921
  -0.0000023029   -0.0000043923   -0.0000542984
   0.0000754604    0.0000062348    0.0002727372
  -0.0000022656    0.0000043488   -0.0000542968
   0.0000754387   -0.0000064509    0.0002727558
  -0.0012732789   -0.0000001117    0.0028855344
   0.0000603463    0.0000000678    0.0003394505
   0.0001823009    0.0001059638    0.0007149527
   0.0000661151    0.0000142539    0.0003308344
   0.0001823250   -0.0001060150    0.0007149433
   0.0000661032   -0.0000144645    0.0003307791
   0.0019029566   -0.0000001786    0.0024935699
  -0.0000125391   -0.0000000504    0.0003459926
  -0.0000003275   -0.0001043895    0.0007394005
  -0.0000201569    0.0000057575    0.0003426657
  -0.0000002835    0.0001043477    0.0007393978
  -0.0000201344   -0.0000058396    0.0003426972
  -0.0000222232   -0.0000188258   -0.0003584531
   0.0037524064   -0.0051193245    0.0043547157
  -0.0000262655   -0.0000000786   -0.0003865817
   0.0000707218    0.0000000939   -0.0004956613
  -0.0000221978    0.0000187489   -0.0003584117
   0.0037523743    0.0051192018    0.0043547288
  -0.0000480768    0.0000098002   -0.0003223415
  -0.0026623767    0.0051419264    0.0051287360
  -0.0000311256   -0.0000001530   -0.0003128573
  -0.0001903025    0.0000000191   -0.0004590245
  -0.0000480142   -0.0000098439   -0.0003223538
  -0.0026624116   -0.0051420414    0.0051287448
  -0.0000593474    0.0000128111   -0.0002588531
   0.0000457158   -0.0000100116    0.0004818384
  -0.0000602771    0.0000000194   -0.0002540667
  -0.0000079350    0.0000000809   -0.0000221193
  -0.0000593372   -0.0000129595   -0.0002589066
   0.0000456791    0.0000098787    0.0004818279
  -0.0006676315   -0.0000000255    0.0010810607
  -0.0008296422   -0.0000000042    0.0009755597
  -0.0006598015   -0.0000064651    0.0010703425
  -0.0006429279   -0.0000128659    0.0011626754
  -0.0006597957    0.0000063843    0.0010703470
  -0.0006429602    0.0000128038    0.0011626734
  -0.0005690798   -0.0000000909    0.0008388035
  -0.0035099286   -0.0000000182    0.0021644025
  -0.0005698779    0.0000076075    0.0008410930
   0.0005616962   -0.0015250528   -0.0004612452
  -0.0005698508   -0.0000077041    0.0008410938
   0.0005616685    0.0015249765   -0.0004612544
  -0.0006079686   -0.0000000956    0.0009316101
  -0.0008828406   -0.0000000149    0.0011485592
  -0.0006065057   -0.0000054000    0.0009314241
  -0.0007503639    0.0001523827    0.0010774682
  -0.0006065244    0.0000053390    0.0009314190
  -0.0007503907   -0.0001526794    0.0010774798
   0.0021796548    0.0018040152   -0.0003436792
   0.0006040946   -0.0000052136   -0.0009011543
   0.0007143211   -0.0000000906   -0.0008341095
   0.0006109038   -0.0000000241   -0.0010011248
   0.0021796794   -0.0018041170   -0.0003436786
   0.0006040435    0.0000051347   -0.0009011580
   0.0005249697   -0.0000973947   -0.0008535862
   0.0005898862   -0.0000292065   -0.0008883285
   0.0005516121   -0.0000001020   -0.0008461797
   0.0005798010   -0.0000001136   -0.0008952841
   0.0005249915    0.0000972899   -0.0008535835
   0.0005898561    0.0000291617   -0.0008883377
  -0.0003006728   -0.0015923502   -0.0008823356
   0.0006305250   -0.0000020230   -0.0010160030
   0.0004012429   -0.0000000828   -0.0010890344
   0.0006489451   -0.0000000307   -0.0010063844
  -0.0003006446    0.0015922415   -0.0008823312
   0.0006305276    0.0000019300   -0.0010159999
   0.0004793157   -0.0000000970    0.0003429762
   0.0035939710   -0.0000000180    0.0007353470
   0.0004877190   -0.0000025229    0.0003379567
  -0.0009810579    0.0015276004   -0.0008114235
   0.0004877302    0.0000024321    0.0003379561
  -0.0009810836   -0.0015276689   -0.0008114109
   0.0005124018   -0.0000000633    0.0002990649
   0.0006944718   -0.0000000134    0.0002496492
   0.0005094079    0.0000101462    0.0002967076
   0.0005629576    0.0000092948    0.0004752118
   0.0005094276   -0.0000102299    0.0002967019
   0.0005628854   -0.0000090705    0.0004752329
   0.0004610096   -0.0000000394    0.0001642371
   0.0008121816   -0.0000000075    0.0003820950
   0.0004571515    0.0000152858    0.0001774010
   0.0006478395   -0.0001529614    0.0003680899
   0.0004571231   -0.0000153601    0.0001774125
   0.0006478094    0.0001529032    0.0003681048
  -0.0018202691   -0.0017835888    0.0006639712
  -0.0004821624   -0.0000116688   -0.0002273129
  -0.0005466325   -0.0000000872   -0.0001334988
  -0.0005056218   -0.0000000566   -0.0002491285
  -0.0018202465    0.0017834887    0.0006639663
  -0.0004821922    0.0000115918   -0.0002272971
   0.0004324046    0.0016328717   -0.0004320915
  -0.0004722962   -0.0000259825   -0.0003306232
  -0.0003197346   -0.0000000833   -0.0004612081
  -0.0004988995   -0.0000000222   -0.0002067051
   0.0004324221   -0.0016329729   -0.0004320984
  -0.0004723356    0.0000259058   -0.0003306079
  -0.0003842106    0.0001034893   -0.0002124138
  -0.0004807570   -0.0000238793   -0.0002958577
  -0.0004055683   -0.0000000933   -0.0002008490
  -0.0004777605   -0.0000000753   -0.0002940545
  -0.0003841829   -0.0001035988   -0.0002124236
  -0.0004807514    0.0000238072   -0.0002958576
  -0.0051853994    0.0000003841    0.0273925885
  -0.0001464298    0.0000000600   -0.0000284885
   0.0002052559    0.0013018929    0.0004686888
  -0.0001217366    0.0000263318   -0.0000300329
   0.0002054567   -0.0013011984    0.0004686452
  -0.0001217579   -0.0000259205   -0.0000300302
   0.0121412301    0.0000003769    0.0266850878
  -0.0000390908   -0.0000000806   -0.0000955219
  -0.0002051183   -0.0012908340    0.0005261301
  -0.0000795411   -0.0000003755   -0.0000834112
  -0.0002049805    0.0012914829    0.0005261011
  -0.0000796008    0.0000007637   -0.0000833547
  -0.0002191080    0.0000004004   -0.0013292054
   0.0000078839    0.0000000266   -0.0001759438
  -0.0001396239   -0.0000064057   -0.0006990519
  -0.0000528579    0.0000264227   -0.0001697179
  -0.0001395864    0.0000072440   -0.0006990986
  -0.0000529516   -0.0000258432   -0.0001696319
  -0.0000113117   -0.0000091240    0.0001871601
   0.0012064606   -0.0000309184    0.0089091839
  -0.0000120062    0.0000000247    0.0001772072
   0.0000686680   -0.0000002605    0.0001288493
  -0.0000112229    0.0000097080    0.0001871916
   0.0012062724    0.0000310403    0.0089092338
   0.0000130617    0.0000042436    0.0000564673
   0.0002809489    0.0002166205   -0.0008313100
   0.0000101089   -0.0000001249    0.0000518078
   0.0000577646   -0.0000003502   -0.0001833542
   0.0000132392   -0.0000037270    0.0000564467
   0.0002810155   -0.0002165924   -0.0008312997
   0.0002208148   -0.0000089244    0.0000421996
  -0.0003367579   -0.0001951383   -0.0007736055
   0.0002235071   -0.0000001471    0.0000409699
   0.0000339588   -0.0000003297   -0.0001760698
   0.0002208487    0.0000090706    0.0000422471
  -0.0003368249    0.0001950923   -0.0007735402

1    
 -0.0011971332654653   0.0000000000000000  -0.0099280850089389
   0.0111022611    0.0000000386    0.0972173729
   0.0000036396    0.0000000821    0.0003681724
   0.0000774931   -0.0000047535    0.0006860554
   0.0000097830   -0.0000061202    0.0003579948
   0.0000774596    0.0000046343    0.0006860329
   0.0000097609    0.0000058961    0.0003579471
   0.0013463256   -0.0000000594   -0.0022449261
   0.0000244055   -0.0000003270    0.0002909427
  -0.0000990037   -0.0001078894   -0.0000865066
   0.0000185501   -0.0000146033    0.0002993364
  -0.0000990235    0.0001077853   -0.0000865048
   0.0000186092    0.0000146978    0.0002992684
  -0.0018319391    0.0000000818   -0.0018704080
   0.0000969826    0.0000001907    0.0002848537
   0.0000841930    0.0001048514   -0.0001062736
   0.0001051838   -0.0000057572    0.0002878637
   0.0000841657   -0.0001049728   -0.0001062450
   0.0001052013    0.0000053773    0.0002879582
  -0.0000622610    0.0000193811   -0.0002718681
  -0.0038823676    0.0051918409   -0.0050422037
  -0.0000581871   -0.0000001811   -0.0002435818
  -0.0001573304   -0.0000001790   -0.0001321259
  -0.0000621646   -0.0000194424   -0.0002719366
  -0.0038823235   -0.0051918906   -0.0050422205
  -0.0000359890   -0.0000091847   -0.0003079856
   0.0025475087   -0.0050717960   -0.0056944534
  -0.0000526415    0.0000000082   -0.0003176600
   0.0001031363   -0.0000001070   -0.0001733047
  -0.0000360422    0.0000090555   -0.0003081114
   0.0025475123    0.0050717244   -0.0056944740
  -0.0000254214   -0.0000137792   -0.0003716390
  -0.0001295890   -0.0000002777   -0.0011123116
  -0.0000244580    0.0000001319   -0.0003764874
  -0.0000768732   -0.0000000864   -0.0006079790
  -0.0000254130    0.0000135861   -0.0003714622
  -0.0001295682    0.0000002107   -0.0011122900
  -0.0005539424   -0.0000001116    0.0008114381
  -0.0003916389   -0.0000000907    0.0009179422
  -0.0005619770    0.0000061155    0.0008222329
  -0.0005765075    0.0000131792    0.0007312494
  -0.0005619509   -0.0000062152    0.0008222380
  -0.0005764749   -0.0000132873    0.0007312573
  -0.0006526089   -0.0000001159    0.0010538154
   0.0022898933   -0.0000001217   -0.0002614318
  -0.0006521208   -0.0000079469    0.0010513581
  -0.0017737500    0.0015067393    0.0023548714
  -0.0006521268    0.0000078601    0.0010513511
  -0.0017737403   -0.0015068391    0.0023548664
  -0.0006135214    0.0000000277    0.0009610361
  -0.0003405001   -0.0000000559    0.0007430877
  -0.0006152125    0.0000052308    0.0009612955
  -0.0004718762   -0.0001518107    0.0008171131
  -0.0006152751   -0.0000053186    0.0009612894
  -0.0004718609    0.0001514962    0.0008171304
  -0.0009407718   -0.0017924494   -0.0015668363
   0.0006180112    0.0000047059   -0.0009925022
   0.0005071189   -0.0000000518   -0.0010572463
   0.0006113141   -0.0000001110   -0.0008933853
  -0.0009407909    0.0017923694   -0.0015668445
   0.0006179809   -0.0000047896   -0.0009925129
   0.0006961588    0.0000950627   -0.0010418356
   0.0006314533    0.0000283389   -0.0010041834
   0.0006694383   -0.0000000163   -0.0010468111
   0.0006413349   -0.0000001255   -0.0009972230
   0.0006961567   -0.0000951546   -0.0010418338
   0.0006315401   -0.0000283951   -0.0010041697
   0.0015330530    0.0016282967   -0.0010167981
   0.0005909118    0.0000025984   -0.0008766561
   0.0008195828    0.0000000072   -0.0008013865
   0.0005725061   -0.0000000100   -0.0008863605
   0.0015330194   -0.0016283695   -0.0010168056
   0.0005908123   -0.0000026862   -0.0008766749
   0.0004874826   -0.0000000711    0.0002024394
  -0.0026275405   -0.0000000705   -0.0002002630
   0.0004791375    0.0000020822    0.0002076379
   0.0019566258   -0.0015462146    0.0013536421
   0.0004791676   -0.0000021886    0.0002076260
   0.0019566615    0.0015461127    0.0013536279
   0.0004541515    0.0000000332    0.0002461405
   0.0002722836   -0.0000000664    0.0002948272
   0.0004571303   -0.0000099245    0.0002484485
   0.0004057083   -0.0000107764    0.0000686320
   0.0004571034    0.0000098222    0.0002484555
   0.0004056649    0.0000109712    0.0000686370
   0.0005056696   -0.0000001513    0.0003814400
   0.0001557665   -0.0000001127    0.0001626798
   0.0005094678   -0.0000153143    0.0003682419
   0.0003165046    0.0001545020    0.0001765388
   0.0005094281    0.0000152692    0.0003682630
   0.0003165209   -0.0001545954    0.0001765342
   0.0008741463    0.0017951903   -0.0011944757
  -0.0004843711    0.0000117246   -0.0003174704
  -0.0004201199    0.0000000108   -0.0004127271
  -0.0004609491   -0.0000000034   -0.0002955918
   0.0008741200   -0.0017952691   -0.0011944634
  -0.0004844209   -0.0000118099   -0.0003174541
  -0.0013871469   -0.0015971507   -0.0001095586
  -0.0004941232    0.0000260033   -0.0002135685
  -0.0006484008   -0.0000000275   -0.0000856921
  -0.0004680785   -0.0000000353   -0.0003366682
  -0.0013871474    0.0015970582   -0.0001095577
  -0.0004940455   -0.0000261178   -0.0002136005
  -0.0005821665   -0.0000930145   -0.0003297171
  -0.0004861277    0.0000237430   -0.0002492681
  -0.0005619291   -0.0000000473   -0.0003434917
  -0.0004893104   -0.0000001912   -0.0002507037
  -0.0005821957    0.0000929344   -0.0003297026
  -0.0004861859   -0.0000237250   -0.0002492359
   0.0053426992   -0.0000000308   -0.0290900626
  -0.0000060932   -0.0000002405   -0.0001620671
  -0.0003458484   -0.0012977426   -0.0006704624
  -0.0000308458   -0.0000266795   -0.0001606153
  -0.0003458256    0.0012978005   -0.0006704488
  -0.0000308399    0.0000270198   -0.0001605590
  -0.0116347457    0.0000001083   -0.0254838835
  -0.0001111440    0.0000003263   -0.0000962669
   0.0000663495    0.0012944383   -0.0007052421
  -0.0000710969    0.0000000146   -0.0001081073
   0.0000662989   -0.0012940962   -0.0007052134
  -0.0000711926    0.0000005025   -0.0001081155
   0.0000742011    0.0000000756    0.0011439891
  -0.0001581320   -0.0000000297   -0.0000140404
  -0.0000018326    0.0000050067    0.0005103628
  -0.0000965408   -0.0000263036   -0.0000205357
  -0.0000019872   -0.0000046677    0.0005103974
  -0.0000967431    0.0000272176   -0.0000203229
   0.0001544393    0.0000104444    0.0000014231
  -0.0008811147   -0.0000771211   -0.0087405773
   0.0001553274   -0.0000000312    0.0000113953
   0.0001072280    0.0000001221    0.0000578022
   0.0001546123   -0.0000098025    0.0000013121
  -0.0008810960    0.0000776274   -0.0087405019
   0.0001299418   -0.0000037494    0.0001314847
  -0.0001256708   -0.0002146853    0.0010267066
   0.0001332116   -0.0000002054    0.0001360027
   0.0000960050   -0.0000000056    0.0003684352
   0.0001296015    0.0000037014    0.0001314968
  -0.0001255680    0.0002149398    0.0010267889
  -0.0000737513    0.0000102756    0.0001499332
   0.0004884166    0.0002103166    0.0009540340
  -0.0000765234   -0.0000002685    0.0001510560
   0.0001194354    0.0000001057    0.0003669746
  -0.0000734119   -0.0000094823    0.0001499247
   0.0004885405   -0.0002096035    0.0009539861

37   
  0.0085917615255254   0.0051167991839138   0.0000000000000000
   0.0000624860   -0.0000022842    0.0002632942
  -0.0001164129   -0.0000153812    0.0001442521
   0.0000567905   -0.0000108660    0.0002755040
  -0.0000439611   -0.0000361944    0.0003017183
   0.0000662960    0.0000154057    0.0002677861
  -0.0000125227    0.0000812562    0.0002811229
   0.0000737255   -0.0000170440    0.0003200161
  -0.0001514706   -0.0001037075    0.0001005857
   0.0000647802   -0.0000057884    0.0003076763
  -0.0000273048    0.0000067492    0.0001638504
   0.0000690024   -0.0000031415    0.0003193625
  -0.0000436781    0.0000695698    0.0002504661
   0.0000763680    0.0000040910    0.0003477077
   0.0045003277   -0.0011233543   -0.0027598138
   0.0000747302   -0.0000129327    0.0003459259
   0.0025941956    0.0033796742    0.0017979784
   0.0000635981    0.0000022715    0.0003485937
   0.0000063903    0.0007762754    0.0005616821
   0.0026356917    0.0015254985    0.0016468732
   0.0000954481   -0.0000610456   -0.0003430468
  -0.0000879421   -0.0000656247   -0.0002198877
   0.0001029412    0.0000101754   -0.0003136955
   0.0009690205   -0.0014419809   -0.0000140972
   0.0001329535    0.0000334209   -0.0003562703
  -0.0000775377   -0.0000130898   -0.0004428108
  -0.0000410677   -0.0000078457   -0.0003357172
  -0.0000745606    0.0000980206   -0.0003993261
  -0.0000381808    0.0000004776   -0.0003371615
  -0.0000948001   -0.0000449434   -0.0002917366
  -0.0000428319    0.0000064733   -0.0003347762
   0.0006058367    0.0001844384   -0.0020364391
  -0.0000286150   -0.0000173322   -0.0002948610
  -0.0000392078    0.0001980279   -0.0004962337
  -0.0000297551    0.0000107374   -0.0002966815
  -0.0001593991   -0.0000271607   -0.0002531954
  -0.0000130246    0.0000091429   -0.0002930973
  -0.0401518941   -0.0265346290    0.0083828965
  -0.0006205485    0.0000079954    0.0009404810
  -0.0012996995    0.0036057763    0.0010408377
  -0.0006144963   -0.0000175512    0.0009345971
  -0.0020607388    0.0048600754    0.0015545467