calculator: aims
length_unit: angstrom
nqpoint: 510    
npath: 10     
segment_nqpoint:
- 51
- 51
- 51
- 51
- 51
- 51
- 51
- 51
- 51
- 51
labels:
- [ 'G', 'X' ]
- [ 'X', 'W' ]
- [ 'W', 'K' ]
- [ 'K', 'G' ]
- [ 'G', 'L' ]
- [ 'L', 'U' ]
- [ 'U', 'W' ]
- [ 'W', 'L' ]
- [ 'L', 'K:' ]
- [ 'U', 'X' ]
reciprocal_lattice:
- [  -0.15810583,   0.15810583,   0.15810583 ] # a*
- [   0.15810583,  -0.15810583,   0.15810583 ] # b*
- [   0.15810583,   0.15810583,  -0.15810583 ] # c*
natom: 2      
lattice:
- [     0.000000000000000,     3.162438790000000,     3.162438790000000 ] # a
- [     3.162438790000000,     0.000000000000000,     3.162438790000000 ] # b
- [     3.162438790000000,     3.162438790000000,     0.000000000000000 ] # c
points:
- symbol: Ba # 1
  coordinates: [  0.000000000000000,  0.000000000000000,  0.000000000000000 ]
  mass: 137.327000
- symbol: S  # 2
  coordinates: [  0.500000000000000,  0.500000000000000,  0.500000000000000 ]
  mass: 32.065000

phonon:
- q-position: [    0.0000000,    0.0000000,    0.0000000 ]
  distance:    0.0000000
  band:
  - # 1
    frequency:   -0.0000000442
  - # 2
    frequency:   -0.0000000242
  - # 3
    frequency:    0.0000000252
  - # 4
    frequency:    4.3826358089
  - # 5
    frequency:    4.3826358089
  - # 6
    frequency:    4.3826358089

- q-position: [    0.0100000,    0.0000000,    0.0100000 ]
  distance:    0.0031621
  band:
  - # 1
    frequency:    0.0944701067
  - # 2
    frequency:    0.0944701067
  - # 3
    frequency:    0.1444726480
  - # 4
    frequency:    4.3843778647
  - # 5
    frequency:    4.3844063316
  - # 6
    frequency:    4.3844063316

- q-position: [    0.0200000,    0.0000000,    0.0200000 ]
  distance:    0.0063242
  band:
  - # 1
    frequency:    0.1886222994
  - # 2
    frequency:    0.1886222994
  - # 3
    frequency:    0.2885020292
  - # 4
    frequency:    4.3895877095
  - # 5
    frequency:    4.3896912164
  - # 6
    frequency:    4.3896912164

- q-position: [    0.0300000,    0.0000000,    0.0300000 ]
  distance:    0.0094863
  band:
  - # 1
    frequency:    0.2821423990
  - # 2
    frequency:    0.2821423990
  - # 3
    frequency:    0.4316486756
  - # 4
    frequency:    4.3982165297
  - # 5
    frequency:    4.3984109155
  - # 6
    frequency:    4.3984109155

- q-position: [    0.0400000,    0.0000000,    0.0400000 ]
  distance:    0.0126485
  band:
  - # 1
    frequency:    0.3747235704
  - # 2
    frequency:    0.3747235704
  - # 3
    frequency:    0.5734806856
  - # 4
    frequency:    4.4101834828
  - # 5
    frequency:    4.4104345112
  - # 6
    frequency:    4.4104345112

- q-position: [    0.0500000,    0.0000000,    0.0500000 ]
  distance:    0.0158106
  band:
  - # 1
    frequency:    0.4660696854
  - # 2
    frequency:    0.4660696854
  - # 3
    frequency:    0.7135774258
  - # 4
    frequency:    4.4253764638
  - # 5
    frequency:    4.4255821644
  - # 6
    frequency:    4.4255821644

- q-position: [    0.0600000,    0.0000000,    0.0600000 ]
  distance:    0.0189727
  band:
  - # 1
    frequency:    0.5558983375
  - # 2
    frequency:    0.5558983375
  - # 3
    frequency:    0.8515331283
  - # 4
    frequency:    4.4436284599
  - # 5
    frequency:    4.4436284599
  - # 6
    frequency:    4.4436531714

- q-position: [    0.0700000,    0.0000000,    0.0700000 ]
  distance:    0.0221348
  band:
  - # 1
    frequency:    0.6439434248
  - # 2
    frequency:    0.6439434248
  - # 3
    frequency:    0.9869603361
  - # 4
    frequency:    4.4643065620
  - # 5
    frequency:    4.4643065620
  - # 6
    frequency:    4.4648424719

- q-position: [    0.0800000,    0.0000000,    0.0800000 ]
  distance:    0.0252969
  band:
  - # 1
    frequency:    0.7299572452
  - # 2
    frequency:    0.7299572452
  - # 3
    frequency:    1.1194931420
  - # 4
    frequency:    4.4873130815
  - # 5
    frequency:    4.4873130815
  - # 6
    frequency:    4.4887460600

- q-position: [    0.0900000,    0.0000000,    0.0900000 ]
  distance:    0.0284590
  band:
  - # 1
    frequency:    0.8137120739
  - # 2
    frequency:    0.8137120739
  - # 3
    frequency:    1.2487901588
  - # 4
    frequency:    4.5123135321
  - # 5
    frequency:    4.5123135321
  - # 6
    frequency:    4.5151404211

- q-position: [    0.1000000,    0.0000000,    0.1000000 ]
  distance:    0.0316212
  band:
  - # 1
    frequency:    0.8950012239
  - # 2
    frequency:    0.8950012239
  - # 3
    frequency:    1.3745371533
  - # 4
    frequency:    4.5389482448
  - # 5
    frequency:    4.5389482448
  - # 6
    frequency:    4.5437791022

- q-position: [    0.1100000,    0.0000000,    0.1100000 ]
  distance:    0.0347833
  band:
  - # 1
    frequency:    0.9736396151
  - # 2
    frequency:    0.9736396151
  - # 3
    frequency:    1.4964492756
  - # 4
    frequency:    4.5668385996
  - # 5
    frequency:    4.5668385996
  - # 6
    frequency:    4.5743953047

- q-position: [    0.1200000,    0.0000000,    0.1200000 ]
  distance:    0.0379454
  band:
  - # 1
    frequency:    1.0494638990
  - # 2
    frequency:    1.0494638990
  - # 3
    frequency:    1.6142728184
  - # 4
    frequency:    4.5955934298
  - # 5
    frequency:    4.5955934298
  - # 6
    frequency:    4.6067048058

- q-position: [    0.1300000,    0.0000000,    0.1300000 ]
  distance:    0.0411075
  band:
  - # 1
    frequency:    1.1223322067
  - # 2
    frequency:    1.1223322067
  - # 3
    frequency:    1.7277864505
  - # 4
    frequency:    4.6248154605
  - # 5
    frequency:    4.6248154605
  - # 6
    frequency:    4.6404092170

- q-position: [    0.1400000,    0.0000000,    0.1400000 ]
  distance:    0.0442696
  band:
  - # 1
    frequency:    1.1921235940
  - # 2
    frequency:    1.1921235940
  - # 3
    frequency:    1.8368018880
  - # 4
    frequency:    4.6541076463
  - # 5
    frequency:    4.6541076463
  - # 6
    frequency:    4.6751995724

- q-position: [    0.1500000,    0.0000000,    0.1500000 ]
  distance:    0.0474317
  band:
  - # 1
    frequency:    1.2587372665
  - # 2
    frequency:    1.2587372665
  - # 3
    frequency:    1.9411639862
  - # 4
    frequency:    4.6830792896
  - # 5
    frequency:    4.6830792896
  - # 6
    frequency:    4.7107602249

- q-position: [    0.1600000,    0.0000000,    0.1600000 ]
  distance:    0.0505939
  band:
  - # 1
    frequency:    1.3220916612
  - # 2
    frequency:    1.3220916612
  - # 3
    frequency:    2.0407502651
  - # 4
    frequency:    4.7113518375
  - # 5
    frequency:    4.7113518375
  - # 6
    frequency:    4.7467730103

- q-position: [    0.1700000,    0.0000000,    0.1700000 ]
  distance:    0.0537560
  band:
  - # 1
    frequency:    1.3821234593
  - # 2
    frequency:    1.3821234593
  - # 3
    frequency:    2.1354699082
  - # 4
    frequency:    4.7385642712
  - # 5
    frequency:    4.7385642712
  - # 6
    frequency:    4.7829216130

- q-position: [    0.1800000,    0.0000000,    0.1800000 ]
  distance:    0.0569181
  band:
  - # 1
    frequency:    1.4387865924
  - # 2
    frequency:    1.4387865924
  - # 3
    frequency:    2.2252623054
  - # 4
    frequency:    4.7643780255
  - # 5
    frequency:    4.7643780255
  - # 6
    frequency:    4.8188960482

- q-position: [    0.1900000,    0.0000000,    0.1900000 ]
  distance:    0.0600802
  band:
  - # 1
    frequency:    1.4920512922
  - # 2
    frequency:    1.4920512922
  - # 3
    frequency:    2.3100952318
  - # 4
    frequency:    4.7884813921
  - # 5
    frequency:    4.7884813921
  - # 6
    frequency:    4.8543971541

- q-position: [    0.2000000,    0.0000000,    0.2000000 ]
  distance:    0.0632423
  band:
  - # 1
    frequency:    1.5419032219
  - # 2
    frequency:    1.5419032219
  - # 3
    frequency:    2.3899627731
  - # 4
    frequency:    4.8105933806
  - # 5
    frequency:    4.8105933806
  - # 6
    frequency:    4.8891409767

- q-position: [    0.2100000,    0.0000000,    0.2100000 ]
  distance:    0.0664044
  band:
  - # 1
    frequency:    1.5883427152
  - # 2
    frequency:    1.5883427152
  - # 3
    frequency:    2.4648831176
  - # 4
    frequency:    4.8304670225
  - # 5
    frequency:    4.8304670225
  - # 6
    frequency:    4.9228629211

- q-position: [    0.2200000,    0.0000000,    0.2200000 ]
  distance:    0.0695666
  band:
  - # 1
    frequency:    1.6313841357
  - # 2
    frequency:    1.6313841357
  - # 3
    frequency:    2.5348963313
  - # 4
    frequency:    4.8478921206
  - # 5
    frequency:    4.8478921206
  - # 6
    frequency:    4.9553215494

- q-position: [    0.2300000,    0.0000000,    0.2300000 ]
  distance:    0.0727287
  band:
  - # 1
    frequency:    1.6710553635
  - # 2
    frequency:    1.6710553635
  - # 3
    frequency:    2.6000622277
  - # 4
    frequency:    4.8626974483
  - # 5
    frequency:    4.8626974483
  - # 6
    frequency:    4.9863019123

- q-position: [    0.2400000,    0.0000000,    0.2400000 ]
  distance:    0.0758908
  band:
  - # 1
    frequency:    1.7073974036
  - # 2
    frequency:    1.7073974036
  - # 3
    frequency:    2.6604584229
  - # 4
    frequency:    4.8747524142
  - # 5
    frequency:    4.8747524142
  - # 6
    frequency:    5.0156183207

- q-position: [    0.2500000,    0.0000000,    0.2500000 ]
  distance:    0.0790529
  band:
  - # 1
    frequency:    1.7404641094
  - # 2
    frequency:    1.7404641094
  - # 3
    frequency:    2.7161786480
  - # 4
    frequency:    4.8839682052
  - # 5
    frequency:    4.8839682052
  - # 6
    frequency:    5.0431164812

- q-position: [    0.2600000,    0.0000000,    0.2600000 ]
  distance:    0.0822150
  band:
  - # 1
    frequency:    1.7703220068
  - # 2
    frequency:    1.7703220068
  - # 3
    frequency:    2.7673313638
  - # 4
    frequency:    4.8902984242
  - # 5
    frequency:    4.8902984242
  - # 6
    frequency:    5.0686749486

- q-position: [    0.2700000,    0.0000000,    0.2700000 ]
  distance:    0.0853771
  band:
  - # 1
    frequency:    1.7970502045
  - # 2
    frequency:    1.7970502045
  - # 3
    frequency:    2.8140386987
  - # 4
    frequency:    4.8937392345
  - # 5
    frequency:    4.8937392345
  - # 6
    frequency:    5.0922058656

- q-position: [    0.2800000,    0.0000000,    0.2800000 ]
  distance:    0.0885393
  band:
  - # 1
    frequency:    1.8207403696
  - # 2
    frequency:    1.8207403696
  - # 3
    frequency:    2.8564357033
  - # 4
    frequency:    4.8943290196
  - # 5
    frequency:    4.8943290196
  - # 6
    frequency:    5.1136549896

- q-position: [    0.2900000,    0.0000000,    0.2900000 ]
  distance:    0.0917014
  band:
  - # 1
    frequency:    1.8414967501
  - # 2
    frequency:    1.8414967501
  - # 3
    frequency:    2.8946698937
  - # 4
    frequency:    4.8921475655
  - # 5
    frequency:    4.8921475655
  - # 6
    frequency:    5.1330010221

- q-position: [    0.3000000,    0.0000000,    0.3000000 ]
  distance:    0.0948635
  band:
  - # 1
    frequency:    1.8594362182
  - # 2
    frequency:    1.8594362182
  - # 3
    frequency:    2.9289010331
  - # 4
    frequency:    4.8873147645
  - # 5
    frequency:    4.8873147645
  - # 6
    frequency:    5.1502542809

- q-position: [    0.3100000,    0.0000000,    0.3100000 ]
  distance:    0.0980256
  band:
  - # 1
    frequency:    1.8746883085
  - # 2
    frequency:    1.8746883085
  - # 3
    frequency:    2.9593010827
  - # 4
    frequency:    4.8799888409
  - # 5
    frequency:    4.8799888409
  - # 6
    frequency:    5.1654547646

- q-position: [    0.3200000,    0.0000000,    0.3200000 ]
  distance:    0.1011877
  band:
  - # 1
    frequency:    1.8873952193
  - # 2
    frequency:    1.8873952193
  - # 3
    frequency:    2.9860542390
  - # 4
    frequency:    4.8703640944
  - # 5
    frequency:    4.8703640944
  - # 6
    frequency:    5.1786696820

- q-position: [    0.3300000,    0.0000000,    0.3300000 ]
  distance:    0.1043498
  band:
  - # 1
    frequency:    1.8977117370
  - # 2
    frequency:    1.8977117370
  - # 3
    frequency:    3.0093569602
  - # 4
    frequency:    4.8586681582
  - # 5
    frequency:    4.8586681582
  - # 6
    frequency:    5.1899905211

- q-position: [    0.3400000,    0.0000000,    0.3400000 ]
  distance:    0.1075120
  band:
  - # 1
    frequency:    1.9058050406
  - # 2
    frequency:    1.9058050406
  - # 3
    frequency:    3.0294178789
  - # 4
    frequency:    4.8451587718
  - # 5
    frequency:    4.8451587718
  - # 6
    frequency:    5.1995297502

- q-position: [    0.3500000,    0.0000000,    0.3500000 ]
  distance:    0.1106741
  band:
  - # 1
    frequency:    1.9118543308
  - # 2
    frequency:    1.9118543308
  - # 3
    frequency:    3.0464574904
  - # 4
    frequency:    4.8301200728
  - # 5
    frequency:    4.8301200728
  - # 6
    frequency:    5.2074172457

- q-position: [    0.3600000,    0.0000000,    0.3600000 ]
  distance:    0.1138362
  band:
  - # 1
    frequency:    1.9160502240
  - # 2
    frequency:    1.9160502240
  - # 3
    frequency:    3.0607075110
  - # 4
    frequency:    4.8138584233
  - # 5
    frequency:    4.8138584233
  - # 6
    frequency:    5.2137965469

- q-position: [    0.3700000,    0.0000000,    0.3700000 ]
  distance:    0.1169983
  band:
  - # 1
    frequency:    1.9185938401
  - # 2
    frequency:    1.9185938401
  - # 3
    frequency:    3.0724098048
  - # 4
    frequency:    4.7966977941
  - # 5
    frequency:    4.7966977941
  - # 6
    frequency:    5.2188210392

- q-position: [    0.3800000,    0.0000000,    0.3800000 ]
  distance:    0.1201604
  band:
  - # 1
    frequency:    1.9196955135
  - # 2
    frequency:    1.9196955135
  - # 3
    frequency:    3.0818147935
  - # 4
    frequency:    4.7789747485
  - # 5
    frequency:    4.7789747485
  - # 6
    frequency:    5.2226501633

- q-position: [    0.3900000,    0.0000000,    0.3900000 ]
  distance:    0.1233225
  band:
  - # 1
    frequency:    1.9195730534
  - # 2
    frequency:    1.9195730534
  - # 3
    frequency:    3.0891792847
  - # 4
    frequency:    4.7610330819
  - # 5
    frequency:    4.7610330819
  - # 6
    frequency:    5.2254457425

- q-position: [    0.4000000,    0.0000000,    0.4000000 ]
  distance:    0.1264847
  band:
  - # 1
    frequency:    1.9184494902
  - # 2
    frequency:    1.9184494902
  - # 3
    frequency:    3.0947636846
  - # 4
    frequency:    4.7432181892
  - # 5
    frequency:    4.7432181892
  - # 6
    frequency:    5.2273685070

- q-position: [    0.4100000,    0.0000000,    0.4100000 ]
  distance:    0.1296468
  band:
  - # 1
    frequency:    1.9165502616
  - # 2
    frequency:    1.9165502616
  - # 3
    frequency:    3.0988285940
  - # 4
    frequency:    4.7258712537
  - # 5
    frequency:    4.7258712537
  - # 6
    frequency:    5.2285748837

- q-position: [    0.4200000,    0.0000000,    0.4200000 ]
  distance:    0.1328089
  band:
  - # 1
    frequency:    1.9140998194
  - # 2
    frequency:    1.9140998194
  - # 3
    frequency:    3.1016308339
  - # 4
    frequency:    4.7093233621
  - # 5
    frequency:    4.7093233621
  - # 6
    frequency:    5.2292140989

- q-position: [    0.4300000,    0.0000000,    0.4300000 ]
  distance:    0.1359710
  band:
  - # 1
    frequency:    1.9113176801
  - # 2
    frequency:    1.9113176801
  - # 3
    frequency:    3.1034189824
  - # 4
    frequency:    4.6938896657
  - # 5
    frequency:    4.6938896657
  - # 6
    frequency:    5.2294256270

- q-position: [    0.4400000,    0.0000000,    0.4400000 ]
  distance:    0.1391331
  band:
  - # 1
    frequency:    1.9084139917
  - # 2
    frequency:    1.9084139917
  - # 3
    frequency:    3.1044285582
  - # 4
    frequency:    4.6798637136
  - # 5
    frequency:    4.6798637136
  - # 6
    frequency:    5.2293369976

- q-position: [    0.4500000,    0.0000000,    0.4500000 ]
  distance:    0.1422952
  band:
  - # 1
    frequency:    1.9055847454
  - # 2
    frequency:    1.9055847454
  - # 3
    frequency:    3.1048770162
  - # 4
    frequency:    4.6675120881
  - # 5
    frequency:    4.6675120881
  - # 6
    frequency:    5.2290619595

- q-position: [    0.4600000,    0.0000000,    0.4600000 ]
  distance:    0.1454574
  band:
  - # 1
    frequency:    1.9030068198
  - # 2
    frequency:    1.9030068198
  - # 3
    frequency:    3.1049587603
  - # 4
    frequency:    4.6570694679
  - # 5
    frequency:    4.6570694679
  - # 6
    frequency:    5.2286989830

- q-position: [    0.4700000,    0.0000000,    0.4700000 ]
  distance:    0.1486195
  band:
  - # 1
    frequency:    1.9008330957
  - # 2
    frequency:    1.9008330957
  - # 3
    frequency:    3.1048403947
  - # 4
    frequency:    4.6487342371
  - # 5
    frequency:    4.6487342371
  - # 6
    frequency:    5.2283300749

- q-position: [    0.4800000,    0.0000000,    0.4800000 ]
  distance:    0.1517816
  band:
  - # 1
    frequency:    1.8991879129
  - # 2
    frequency:    1.8991879129
  - # 3
    frequency:    3.1046564403
  - # 4
    frequency:    4.6426647442
  - # 5
    frequency:    4.6426647442
  - # 6
    frequency:    5.2280198737

- q-position: [    0.4900000,    0.0000000,    0.4900000 ]
  distance:    0.1549437
  band:
  - # 1
    frequency:    1.8981631554
  - # 2
    frequency:    1.8981631554
  - # 3
    frequency:    3.1045057376
  - # 4
    frequency:    4.6389762998
  - # 5
    frequency:    4.6389762998
  - # 6
    frequency:    5.2278149896

- q-position: [    0.5000000,    0.0000000,    0.5000000 ]
  distance:    0.1581058
  band:
  - # 1
    frequency:    1.8978152296
  - # 2
    frequency:    1.8978152296
  - # 3
    frequency:    3.1044487240
  - # 4
    frequency:    4.6377389820
  - # 5
    frequency:    4.6377389820
  - # 6
    frequency:    5.2277435593

- q-position: [    0.5000000,    0.0000000,    0.5000000 ]
  distance:    0.1581058
  band:
  - # 1
    frequency:    1.8978152296
  - # 2
    frequency:    1.8978152296
  - # 3
    frequency:    3.1044487240
  - # 4
    frequency:    4.6377389820
  - # 5
    frequency:    4.6377389820
  - # 6
    frequency:    5.2277435593

- q-position: [    0.5000000,    0.0050000,    0.5050000 ]
  distance:    0.1596869
  band:
  - # 1
    frequency:    1.8985795422
  - # 2
    frequency:    1.8987272065
  - # 3
    frequency:    3.1043755580
  - # 4
    frequency:    4.6378681343
  - # 5
    frequency:    4.6382439361
  - # 6
    frequency:    5.2279529520

- q-position: [    0.5000000,    0.0100000,    0.5100000 ]
  distance:    0.1612679
  band:
  - # 1
    frequency:    1.9008681879
  - # 2
    frequency:    1.9014566918
  - # 3
    frequency:    3.1041557124
  - # 4
    frequency:    4.6382551532
  - # 5
    frequency:    4.6397571784
  - # 6
    frequency:    5.2285797972

- q-position: [    0.5000000,    0.0150000,    0.5150000 ]
  distance:    0.1628490
  band:
  - # 1
    frequency:    1.9046683600
  - # 2
    frequency:    1.9059844593
  - # 3
    frequency:    3.1037881461
  - # 4
    frequency:    4.6388987262
  - # 5
    frequency:    4.6422738553
  - # 6
    frequency:    5.2296201035

- q-position: [    0.5000000,    0.0200000,    0.5200000 ]
  distance:    0.1644301
  band:
  - # 1
    frequency:    1.9099589415
  - # 2
    frequency:    1.9122788273
  - # 3
    frequency:    3.1032711289
  - # 4
    frequency:    4.6397966687
  - # 5
    frequency:    4.6457858986
  - # 6
    frequency:    5.2310672426

- q-position: [    0.5000000,    0.0250000,    0.5250000 ]
  distance:    0.1660111
  band:
  - # 1
    frequency:    1.9167108378
  - # 2
    frequency:    1.9202961862
  - # 3
    frequency:    3.1026022481
  - # 4
    frequency:    4.6409459283
  - # 5
    frequency:    4.6502820557
  - # 6
    frequency:    5.2329119858

- q-position: [    0.5000000,    0.0300000,    0.5300000 ]
  distance:    0.1675922
  band:
  - # 1
    frequency:    1.9248874274
  - # 2
    frequency:    1.9299817080
  - # 3
    frequency:    3.1017784191
  - # 4
    frequency:    4.6423425913
  - # 5
    frequency:    4.6557479342
  - # 6
    frequency:    5.2351425531

- q-position: [    0.5000000,    0.0350000,    0.5350000 ]
  distance:    0.1691732
  band:
  - # 1
    frequency:    1.9344451129
  - # 2
    frequency:    1.9412702091
  - # 3
    frequency:    3.1007958973
  - # 4
    frequency:    4.6439818906
  - # 5
    frequency:    4.6621660565
  - # 6
    frequency:    5.2377446778

- q-position: [    0.5000000,    0.0400000,    0.5400000 ]
  distance:    0.1707543
  band:
  - # 1
    frequency:    1.9453339572
  - # 2
    frequency:    1.9540871373
  - # 3
    frequency:    3.0996502942
  - # 4
    frequency:    4.6458582153
  - # 5
    frequency:    4.6695159288
  - # 6
    frequency:    5.2407016823

- q-position: [    0.5000000,    0.0450000,    0.5450000 ]
  distance:    0.1723354
  band:
  - # 1
    frequency:    1.9574983841
  - # 2
    frequency:    1.9683496472
  - # 3
    frequency:    3.0983365947
  - # 4
    frequency:    4.6479651227
  - # 5
    frequency:    4.6777741202
  - # 6
    frequency:    5.2439945675

- q-position: [    0.5000000,    0.0500000,    0.5500000 ]
  distance:    0.1739164
  band:
  - # 1
    frequency:    1.9708779229
  - # 2
    frequency:    1.9839677324
  - # 3
    frequency:    3.0968491777
  - # 4
    frequency:    4.6502953515
  - # 5
    frequency:    4.6869143554
  - # 6
    frequency:    5.2476021130

- q-position: [    0.5000000,    0.0550000,    0.5550000 ]
  distance:    0.1754975
  band:
  - # 1
    frequency:    1.9854079781
  - # 2
    frequency:    2.0008453791
  - # 3
    frequency:    3.0951818392
  - # 4
    frequency:    4.6528408370
  - # 5
    frequency:    4.6969076173
  - # 6
    frequency:    5.2515009891

- q-position: [    0.5000000,    0.0600000,    0.5600000 ]
  distance:    0.1770785
  band:
  - # 1
    frequency:    2.0010206044
  - # 2
    frequency:    2.0188817150
  - # 3
    frequency:    3.0933278168
  - # 4
    frequency:    4.6555927288
  - # 5
    frequency:    4.7077222625
  - # 6
    frequency:    5.2556658778

- q-position: [    0.5000000,    0.0650000,    0.5650000 ]
  distance:    0.1786596
  band:
  - # 1
    frequency:    2.0176452704
  - # 2
    frequency:    2.0379721248
  - # 3
    frequency:    3.0912798175
  - # 4
    frequency:    4.6585414095
  - # 5
    frequency:    4.7193241467
  - # 6
    frequency:    5.2600696034

- q-position: [    0.5000000,    0.0700000,    0.5700000 ]
  distance:    0.1802406
  band:
  - # 1
    frequency:    2.0352095961
  - # 2
    frequency:    2.0580093135
  - # 3
    frequency:    3.0890300470
  - # 4
    frequency:    4.6616765166
  - # 5
    frequency:    4.7316767609
  - # 6
    frequency:    5.2646832714

- q-position: [    0.5000000,    0.0750000,    0.5750000 ]
  distance:    0.1818217
  band:
  - # 1
    frequency:    2.0536400515
  - # 2
    frequency:    2.0788843007
  - # 3
    frequency:    3.0865702404
  - # 4
    frequency:    4.6649869649
  - # 5
    frequency:    4.7447413777
  - # 6
    frequency:    5.2694764139

- q-position: [    0.5000000,    0.0800000,    0.5800000 ]
  distance:    0.1834028
  band:
  - # 1
    frequency:    2.0728626076
  - # 2
    frequency:    2.1004873341
  - # 3
    frequency:    3.0838916956
  - # 4
    frequency:    4.6684609731
  - # 5
    frequency:    4.7584772064
  - # 6
    frequency:    5.2744171415

- q-position: [    0.5000000,    0.0850000,    0.5850000 ]
  distance:    0.1849838
  band:
  - # 1
    frequency:    2.0928033315
  - # 2
    frequency:    2.1227087153
  - # 3
    frequency:    3.0809853075
  - # 4
    frequency:    4.6720860909
  - # 5
    frequency:    4.7728415573
  - # 6
    frequency:    5.2794723004

- q-position: [    0.5000000,    0.0900000,    0.5900000 ]
  distance:    0.1865649
  band:
  - # 1
    frequency:    2.1133889221
  - # 2
    frequency:    2.1454395358
  - # 3
    frequency:    3.0778416044
  - # 4
    frequency:    4.6758492296
  - # 5
    frequency:    4.7877900137
  - # 6
    frequency:    5.2846076332

- q-position: [    0.5000000,    0.0950000,    0.5950000 ]
  distance:    0.1881459
  band:
  - # 1
    frequency:    2.1345471833
  - # 2
    frequency:    2.1685723212
  - # 3
    frequency:    3.0744507849
  - # 4
    frequency:    4.6797366952
  - # 5
    frequency:    4.8032766102
  - # 6
    frequency:    5.2897879434

- q-position: [    0.5000000,    0.1000000,    0.6000000 ]
  distance:    0.1897270
  band:
  - # 1
    frequency:    2.1562074352
  - # 2
    frequency:    2.1920015875
  - # 3
    frequency:    3.0708027568
  - # 4
    frequency:    4.6837342236
  - # 5
    frequency:    4.8192540179
  - # 6
    frequency:    5.2949772616

- q-position: [    0.5000000,    0.1050000,    0.6050000 ]
  distance:    0.1913081
  band:
  - # 1
    frequency:    2.1783008632
  - # 2
    frequency:    2.2156243142
  - # 3
    frequency:    3.0668871763
  - # 4
    frequency:    4.6878270193
  - # 5
    frequency:    4.8356737339
  - # 6
    frequency:    5.3001390130

- q-position: [    0.5000000,    0.1100000,    0.6100000 ]
  distance:    0.1928891
  band:
  - # 1
    frequency:    2.2007608091
  - # 2
    frequency:    2.2393403383
  - # 3
    frequency:    3.0626934884
  - # 4
    frequency:    4.6919997967
  - # 5
    frequency:    4.8524862749
  - # 6
    frequency:    5.3052361857

- q-position: [    0.5000000,    0.1150000,    0.6150000 ]
  distance:    0.1944702
  band:
  - # 1
    frequency:    2.2235230062
  - # 2
    frequency:    2.2630526779
  - # 3
    frequency:    3.0582109682
  - # 4
    frequency:    4.6962368248
  - # 5
    frequency:    4.8696413740
  - # 6
    frequency:    5.3102314985

- q-position: [    0.5000000,    0.1200000,    0.6200000 ]
  distance:    0.1960512
  band:
  - # 1
    frequency:    2.2465257636
  - # 2
    frequency:    2.2866677898
  - # 3
    frequency:    3.0534287626
  - # 4
    frequency:    4.7005219750
  - # 5
    frequency:    4.8870881785
  - # 6
    frequency:    5.3150875673

- q-position: [    0.5000000,    0.1250000,    0.6250000 ]
  distance:    0.1976323
  band:
  - # 1
    frequency:    2.2697101031
  - # 2
    frequency:    2.3100957713
  - # 3
    frequency:    3.0483359324
  - # 4
    frequency:    4.7048387725
  - # 5
    frequency:    4.9047754488
  - # 6
    frequency:    5.3197670695

- q-position: [    0.5000000,    0.1300000,    0.6300000 ]
  distance:    0.1992133
  band:
  - # 1
    frequency:    2.2930198555
  - # 2
    frequency:    2.3332505095
  - # 3
    frequency:    3.0429214950
  - # 4
    frequency:    4.7091704511
  - # 5
    frequency:    4.9226517563
  - # 6
    frequency:    5.3242329071

- q-position: [    0.5000000,    0.1350000,    0.6350000 ]
  distance:    0.2007944
  band:
  - # 1
    frequency:    2.3164017189
  - # 2
    frequency:    2.3560497877
  - # 3
    frequency:    3.0371744673
  - # 4
    frequency:    4.7135000113
  - # 5
    frequency:    4.9406656801
  - # 6
    frequency:    5.3284483648

- q-position: [    0.5000000,    0.1400000,    0.6400000 ]
  distance:    0.2023755
  band:
  - # 1
    frequency:    2.3398052853
  - # 2
    frequency:    2.3784153528
  - # 3
    frequency:    3.0310839085
  - # 4
    frequency:    4.7178102826
  - # 5
    frequency:    4.9587660007
  - # 6
    frequency:    5.3323772664

- q-position: [    0.5000000,    0.1450000,    0.6450000 ]
  distance:    0.2039565
  band:
  - # 1
    frequency:    2.3631830392
  - # 2
    frequency:    2.4002729503
  - # 3
    frequency:    3.0246389637
  - # 4
    frequency:    4.7220839885
  - # 5
    frequency:    4.9769018898
  - # 6
    frequency:    5.3359841261

- q-position: [    0.5000000,    0.1500000,    0.6500000 ]
  distance:    0.2055376
  band:
  - # 1
    frequency:    2.3864903335
  - # 2
    frequency:    2.4215523319
  - # 3
    frequency:    3.0178289063
  - # 4
    frequency:    4.7263038161
  - # 5
    frequency:    4.9950230956
  - # 6
    frequency:    5.3392342954

- q-position: [    0.5000000,    0.1550000,    0.6550000 ]
  distance:    0.2071186
  band:
  - # 1
    frequency:    2.4096853455
  - # 2
    frequency:    2.4421872388
  - # 3
    frequency:    3.0106431820
  - # 4
    frequency:    4.7304524876
  - # 5
    frequency:    5.0130801226
  - # 6
    frequency:    5.3420941058

- q-position: [    0.5000000,    0.1600000,    0.6600000 ]
  distance:    0.2086997
  band:
  - # 1
    frequency:    2.4327290176
  - # 2
    frequency:    2.4621153671
  - # 3
    frequency:    3.0030714509
  - # 4
    frequency:    4.7345128360
  - # 5
    frequency:    5.0310244047
  - # 6
    frequency:    5.3445310055

- q-position: [    0.5000000,    0.1650000,    0.6650000 ]
  distance:    0.2102807
  band:
  - # 1
    frequency:    2.4555849854
  - # 2
    frequency:    2.4812783167
  - # 3
    frequency:    2.9951036308
  - # 4
    frequency:    4.7384678832
  - # 5
    frequency:    5.0488084720
  - # 6
    frequency:    5.3465136915

- q-position: [    0.5000000,    0.1700000,    0.6700000 ]
  distance:    0.2118618
  band:
  - # 1
    frequency:    2.4782194963
  - # 2
    frequency:    2.4996215272
  - # 3
    frequency:    2.9867299401
  - # 4
    frequency:    4.7423009202
  - # 5
    frequency:    5.0663861086
  - # 6
    frequency:    5.3480122361

- q-position: [    0.5000000,    0.1750000,    0.6750000 ]
  distance:    0.2134429
  band:
  - # 1
    frequency:    2.5006013216
  - # 2
    frequency:    2.5170942050
  - # 3
    frequency:    2.9779409398
  - # 4
    frequency:    4.7459955899
  - # 5
    frequency:    5.0837125036
  - # 6
    frequency:    5.3489982066

- q-position: [    0.5000000,    0.1800000,    0.6800000 ]
  distance:    0.2150239
  band:
  - # 1
    frequency:    2.5227016628
  - # 2
    frequency:    2.5336492418
  - # 3
    frequency:    2.9687275764
  - # 4
    frequency:    4.7495359705
  - # 5
    frequency:    5.1007443926
  - # 6
    frequency:    5.3494447806

- q-position: [    0.5000000,    0.1850000,    0.6850000 ]
  distance:    0.2166050
  band:
  - # 1
    frequency:    2.5444940564
  - # 2
    frequency:    2.5492431288
  - # 3
    frequency:    2.9590812241
  - # 4
    frequency:    4.7529066601