14.400
4.8193495679059035  -2.394385225728698e-14  -9.680003333745523e-15  -2.4326247932157655e-14  4.819348739824951  -6.005573098930497e-16  -9.66733851972737e-15  -8.652927771112104e-16  4.819348281340224
2.64275132          1.278e-05               -1.41e-05               4.157e-05                2.64272674         -3.323e-05              3.423e-05              2.351e-05               2.64267682
-2.64267329         1.231e-05               -2.515e-05              4.012e-05                -2.64270261        -2.684e-05              4.241e-05              5.7e-06                 -2.64273358
