calculator: aims
length_unit: angstrom
nqpoint: 510    
npath: 10     
segment_nqpoint:
- 51
- 51
- 51
- 51
- 51
- 51
- 51
- 51
- 51
- 51
labels:
- [ 'G', 'Y' ]
- [ 'Y', 'F' ]
- [ 'F', 'L' ]
- [ 'L', 'I:' ]
- [ 'I1', 'Z' ]
- [ 'Z', 'F1:' ]
- [ 'Y', 'X1:' ]
- [ 'X', 'G' ]
- [ 'G', 'N:' ]
- [ 'M', 'G' ]
reciprocal_lattice:
- [   0.11008559,  -0.21330454,  -0.05796120 ] # a*
- [   0.11008559,   0.21330454,  -0.05796120 ] # b*
- [   0.00000000,   0.00000000,   0.12604854 ] # c*
natom: 6      
lattice:
- [     4.541920370000000,    -2.344066380000000,     0.000000000000000 ] # a
- [     4.541920370000000,     2.344066380000000,     0.000000000000000 ] # b
- [     4.177044190000000,     0.000000000000000,     7.933451470000000 ] # c
points:
- symbol: Ba # 1
  coordinates: [  0.139421700000000,  0.860578300000000,  0.250000000000000 ]
  mass: 137.327000
- symbol: Ba # 2
  coordinates: [  0.860578300000000,  0.139421700000000,  0.750000000000000 ]
  mass: 137.327000
- symbol: S  # 3
  coordinates: [  0.483854990000000,  0.198450640000000,  0.521600660000000 ]
  mass: 32.065000
- symbol: S  # 4
  coordinates: [  0.801549360000000,  0.516145010000000,  0.978399340000000 ]
  mass: 32.065000
- symbol: S  # 5
  coordinates: [  0.516145010000000,  0.801549360000000,  0.478399340000000 ]
  mass: 32.065000
- symbol: S  # 6
  coordinates: [  0.198450640000000,  0.483854990000000,  0.021600660000000 ]
  mass: 32.065000

phonon:
- q-position: [    0.0000000,    0.0000000,    0.0000000 ]
  distance:    0.0000000
  band:
  - # 1
    frequency:   -0.0002907909
  - # 2
    frequency:   -0.0002097768
  - # 3
    frequency:   -0.0001409558
  - # 4
    frequency:    2.0454792550
  - # 5
    frequency:    2.4687357739
  - # 6
    frequency:    2.5114764293
  - # 7
    frequency:    3.1639279884
  - # 8
    frequency:    4.0420810272
  - # 9
    frequency:    4.6011447039
  - # 10
    frequency:    4.9289877847
  - # 11
    frequency:    4.9537024229
  - # 12
    frequency:    4.9842953960
  - # 13
    frequency:    4.9865828580
  - # 14
    frequency:    5.3535370023
  - # 15
    frequency:    5.3877902447
  - # 16
    frequency:    5.6578492796
  - # 17
    frequency:   13.3762820498
  - # 18
    frequency:   13.4390065122

- q-position: [    0.0100000,    0.0100000,    0.0200000 ]
  distance:    0.0025888
  band:
  - # 1
    frequency:    0.0320578966
  - # 2
    frequency:    0.0488608914
  - # 3
    frequency:    0.1047472067
  - # 4
    frequency:    2.0425943928
  - # 5
    frequency:    2.4685610847
  - # 6
    frequency:    2.5151247027
  - # 7
    frequency:    3.1643501247
  - # 8
    frequency:    4.0393307042
  - # 9
    frequency:    4.6023120910
  - # 10
    frequency:    4.9302856320
  - # 11
    frequency:    4.9406361290
  - # 12
    frequency:    4.9872144933
  - # 13
    frequency:    4.9976698844
  - # 14
    frequency:    5.3523692696
  - # 15
    frequency:    5.3902706693
  - # 16
    frequency:    5.6581966153
  - # 17
    frequency:   13.3767938135
  - # 18
    frequency:   13.4393472643

- q-position: [    0.0200000,    0.0200000,    0.0400000 ]
  distance:    0.0051776
  band:
  - # 1
    frequency:    0.0641710268
  - # 2
    frequency:    0.0977185051
  - # 3
    frequency:    0.2092752706
  - # 4
    frequency:    2.0342380297
  - # 5
    frequency:    2.4680541134
  - # 6
    frequency:    2.5257864278
  - # 7
    frequency:    3.1656061943
  - # 8
    frequency:    4.0311601274
  - # 9
    frequency:    4.6057677121
  - # 10
    frequency:    4.9192962829
  - # 11
    frequency:    4.9341157060
  - # 12
    frequency:    4.9891681415
  - # 13
    frequency:    5.0198955670
  - # 14
    frequency:    5.3496837398
  - # 15
    frequency:    5.3968648480
  - # 16
    frequency:    5.6592346600
  - # 17
    frequency:   13.3783271197
  - # 18
    frequency:   13.4403688354

- q-position: [    0.0300000,    0.0300000,    0.0600000 ]
  distance:    0.0077664
  band:
  - # 1
    frequency:    0.0963923176
  - # 2
    frequency:    0.1465652788
  - # 3
    frequency:    0.3133639247
  - # 4
    frequency:    2.0212011318
  - # 5
    frequency:    2.4672650746
  - # 6
    frequency:    2.5427157775
  - # 7
    frequency:    3.1676659725
  - # 8
    frequency:    4.0178039354
  - # 9
    frequency:    4.6113748062
  - # 10
    frequency:    4.8973006564
  - # 11
    frequency:    4.9402651565
  - # 12
    frequency:    4.9926408088
  - # 13
    frequency:    5.0432450149
  - # 14
    frequency:    5.3467321911
  - # 15
    frequency:    5.4062324357
  - # 16
    frequency:    5.6609517074
  - # 17
    frequency:   13.3808760147
  - # 18
    frequency:   13.4420691687

- q-position: [    0.0400000,    0.0400000,    0.0800000 ]
  distance:    0.0103552
  band:
  - # 1
    frequency:    0.1287728147
  - # 2
    frequency:    0.1953925250
  - # 3
    frequency:    0.4167925190
  - # 4
    frequency:    2.0045339291
  - # 5
    frequency:    2.4662742405
  - # 6
    frequency:    2.5649369033
  - # 7
    frequency:    3.1704816178
  - # 8
    frequency:    3.9996325239
  - # 9
    frequency:    4.6189148148
  - # 10
    frequency:    4.8756678879
  - # 11
    frequency:    4.9483063908
  - # 12
    frequency:    4.9980282161
  - # 13
    frequency:    5.0665371566
  - # 14
    frequency:    5.3442202522
  - # 15
    frequency:    5.4175197451
  - # 16
    frequency:    5.6633288405
  - # 17
    frequency:   13.3844305801
  - # 18
    frequency:   13.4444448317

- q-position: [    0.0500000,    0.0500000,    0.1000000 ]
  distance:    0.0129440
  band:
  - # 1
    frequency:    0.1613597589
  - # 2
    frequency:    0.2441871757
  - # 3
    frequency:    0.5193389679
  - # 4
    frequency:    1.9853257326
  - # 5
    frequency:    2.4651873419
  - # 6
    frequency:    2.5914627408
  - # 7
    frequency:    3.1739911042
  - # 8
    frequency:    3.9771246941
  - # 9
    frequency:    4.6281008299
  - # 10
    frequency:    4.8546469606
  - # 11
    frequency:    4.9575240873
  - # 12
    frequency:    5.0059899747
  - # 13
    frequency:    5.0893330667
  - # 14
    frequency:    5.3424366597
  - # 15
    frequency:    5.4302314309
  - # 16
    frequency:    5.6663408003
  - # 17
    frequency:   13.3889769398
  - # 18
    frequency:   13.4474910076

- q-position: [    0.0600000,    0.0600000,    0.1200000 ]
  distance:    0.0155328
  band:
  - # 1
    frequency:    0.1941954844
  - # 2
    frequency:    0.2929307328
  - # 3
    frequency:    0.6207790719
  - # 4
    frequency:    1.9645754619
  - # 5
    frequency:    2.4641300735
  - # 6
    frequency:    2.6214223538
  - # 7
    frequency:    3.1781223851
  - # 8
    frequency:    3.9508356802
  - # 9
    frequency:    4.6385949982
  - # 10
    frequency:    4.8342979018
  - # 11
    frequency:    4.9669841845
  - # 12
    frequency:    5.0173706546
  - # 13
    frequency:    5.1113817499
  - # 14
    frequency:    5.3414709725
  - # 15
    frequency:    5.4440167478
  - # 16
    frequency:    5.6699571605
  - # 17
    frequency:   13.3944972718
  - # 18
    frequency:   13.4512014819

- q-position: [    0.0700000,    0.0700000,    0.1400000 ]
  distance:    0.0181216
  band:
  - # 1
    frequency:    0.2273163592
  - # 2
    frequency:    0.3415982697
  - # 3
    frequency:    0.7208855837
  - # 4
    frequency:    1.9431471507
  - # 5
    frequency:    2.4632424213
  - # 6
    frequency:    2.6541023653
  - # 7
    frequency:    3.1827978236
  - # 8
    frequency:    3.9213648949
  - # 9
    frequency:    4.6500281824
  - # 10
    frequency:    4.8146040685
  - # 11
    frequency:    4.9759163057
  - # 12
    frequency:    5.0328066144
  - # 13
    frequency:    5.1325298301
  - # 14
    frequency:    5.3413194731
  - # 15
    frequency:    5.4585721145
  - # 16
    frequency:    5.6741437705
  - # 17
    frequency:   13.4009698256
  - # 18
    frequency:   13.4555686222

- q-position: [    0.0800000,    0.0800000,    0.1600000 ]
  distance:    0.0207104
  band:
  - # 1
    frequency:    0.2607518355
  - # 2
    frequency:    0.3901576193
  - # 3
    frequency:    0.8194269844
  - # 4
    frequency:    1.9217735700
  - # 5
    frequency:    2.4626734847
  - # 6
    frequency:    2.6889391229
  - # 7
    frequency:    3.1879384796
  - # 8
    frequency:    3.8893268989
  - # 9
    frequency:    4.6620196562
  - # 10
    frequency:    4.7955120418
  - # 11
    frequency:    4.9840951988
  - # 12
    frequency:    5.0523348301
  - # 13
    frequency:    5.1526951025
  - # 14
    frequency:    5.3419312576
  - # 15
    frequency:    5.4736085962
  - # 16
    frequency:    5.6788644284
  - # 17
    frequency:   13.4083689477
  - # 18
    frequency:   13.4605833487

- q-position: [    0.0900000,    0.0900000,    0.1800000 ]
  distance:    0.0232992
  band:
  - # 1
    frequency:    0.2945236451
  - # 2
    frequency:    0.4385687820
  - # 3
    frequency:    0.9161659063
  - # 4
    frequency:    1.9010772518
  - # 5
    frequency:    2.4625773450
  - # 6
    frequency:    2.7254920975
  - # 7
    frequency:    3.1934679480
  - # 8
    frequency:    3.8553277416
  - # 9
    frequency:    4.6741944966
  - # 10
    frequency:    4.7769524959
  - # 11
    frequency:    4.9917199557
  - # 12
    frequency:    5.0755068944
  - # 13
    frequency:    5.1718489577
  - # 14
    frequency:    5.3432303566
  - # 15
    frequency:    5.4888480580
  - # 16
    frequency:    5.6840827404
  - # 17
    frequency:   13.4166651175
  - # 18
    frequency:   13.4662350946

- q-position: [    0.1000000,    0.1000000,    0.2000000 ]
  distance:    0.0258880
  band:
  - # 1
    frequency:    0.3286451715
  - # 2
    frequency:    0.4867835699
  - # 3
    frequency:    1.0108571468
  - # 4
    frequency:    1.8815923946
  - # 5
    frequency:    2.4631103604
  - # 6
    frequency:    2.7634148467
  - # 7
    frequency:    3.1993155652
  - # 8
    frequency:    3.8199474451
  - # 9
    frequency:    4.6861968360
  - # 10
    frequency:    4.7588528748
  - # 11
    frequency:    4.9990731678
  - # 12
    frequency:    5.1017274927
  - # 13
    frequency:    5.1899972326
  - # 14
    frequency:    5.3451293730
  - # 15
    frequency:    5.5040314728
  - # 16
    frequency:    5.6897641298
  - # 17
    frequency:   13.4258249958
  - # 18
    frequency:   13.4725117531

- q-position: [    0.1100000,    0.1100000,    0.2200000 ]
  distance:    0.0284768
  band:
  - # 1
    frequency:    0.3631210284
  - # 2
    frequency:    0.5347454939
  - # 3
    frequency:    1.1032452334
  - # 4
    frequency:    1.8637811662
  - # 5
    frequency:    2.4644300857
  - # 6
    frequency:    2.8024299070
  - # 7
    frequency:    3.2054189108
  - # 8
    frequency:    3.7837283621
  - # 9
    frequency:    4.6976981591
  - # 10
    frequency:    4.7411450478
  - # 11
    frequency:    5.0063586000
  - # 12
    frequency:    5.1304192678
  - # 13
    frequency:    5.2071575891
  - # 14
    frequency:    5.3475418852
  - # 15
    frequency:    5.5189312696
  - # 16
    frequency:    5.6958779633
  - # 17
    frequency:   13.4358114904
  - # 18
    frequency:   13.4793996121

- q-position: [    0.1200000,    0.1200000,    0.2400000 ]
  distance:    0.0310656
  band:
  - # 1
    frequency:    0.3979468635
  - # 2
    frequency:    0.5823898917
  - # 3
    frequency:    1.1930615485
  - # 4
    frequency:    1.8480429723
  - # 5
    frequency:    2.4666958324
  - # 6
    frequency:    2.8423090416
  - # 7
    frequency:    3.2117256157
  - # 8
    frequency:    3.7471685558
  - # 9
    frequency:    4.7084010141
  - # 10
    frequency:    4.7237694841
  - # 11
    frequency:    5.0136877015
  - # 12
    frequency:    5.1610431269
  - # 13
    frequency:    5.2233327355
  - # 14
    frequency:    5.3503981625
  - # 15
    frequency:    5.5333633100
  - # 16
    frequency:    5.7023997620
  - # 17
    frequency:   13.4465838406
  - # 18
    frequency:   13.4868832730

- q-position: [    0.1300000,    0.1300000,    0.2600000 ]
  distance:    0.0336544
  band:
  - # 1
    frequency:    0.4331093977
  - # 2
    frequency:    0.6296442890
  - # 3
    frequency:    1.2800211107
  - # 4
    frequency:    1.8347173378
  - # 5
    frequency:    2.4700706955
  - # 6
    frequency:    2.8828583549
  - # 7
    frequency:    3.2181945336
  - # 8
    frequency:    3.7107191647
  - # 9
    frequency:    4.7066770484
  - # 10
    frequency:    4.7180393899
  - # 11
    frequency:    5.0211047219
  - # 12
    frequency:    5.1930827796
  - # 13
    frequency:    5.2384780245
  - # 14
    frequency:    5.3536681183
  - # 15
    frequency:    5.5471961024
  - # 16
    frequency:    5.7093134664
  - # 17
    frequency:   13.4580977247
  - # 18
    frequency:   13.4949455564

- q-position: [    0.1400000,    0.1400000,    0.2800000 ]
  distance:    0.0362432
  band:
  - # 1
    frequency:    0.4685866877
  - # 2
    frequency:    0.6764289781
  - # 3
    frequency:    1.3638192767
  - # 4
    frequency:    1.8240817584
  - # 5
    frequency:    2.4747246442
  - # 6
    frequency:    2.9239072576
  - # 7
    frequency:    3.2247963613
  - # 8
    frequency:    3.6747847876
  - # 9
    frequency:    4.6898292844
  - # 10
    frequency:    4.7263773342
  - # 11
    frequency:    5.0286095750
  - # 12
    frequency:    5.2260326850
  - # 13
    frequency:    5.2524615407
  - # 14
    frequency:    5.3573947579
  - # 15
    frequency:    5.5603561061
  - # 16
    frequency:    5.7166137008
  - # 17
    frequency:   13.4703053936
  - # 18
    frequency:   13.5035673944

- q-position: [    0.1500000,    0.1500000,    0.3000000 ]
  distance:    0.0388320
  band:
  - # 1
    frequency:    0.5043485808
  - # 2
    frequency:    0.7226577959
  - # 3
    frequency:    1.4441289025
  - # 4
    frequency:    1.8163460812
  - # 5
    frequency:    2.4808379721
  - # 6
    frequency:    2.9653002582
  - # 7
    frequency:    3.2315137896
  - # 8
    frequency:    3.6397261311
  - # 9
    frequency:    4.6731978418
  - # 10
    frequency:    4.7332071721
  - # 11
    frequency:    5.0361728245
  - # 12
    frequency:    5.2593936675
  - # 13
    frequency:    5.2650184737
  - # 14
    frequency:    5.3617369699
  - # 15
    frequency:    5.5728287041
  - # 16
    frequency:    5.7243079342
  - # 17
    frequency:   13.4831558338
  - # 18
    frequency:   13.5127277122

- q-position: [    0.1600000,    0.1600000,    0.3200000 ]
  distance:    0.0414208
  band:
  - # 1
    frequency:    0.5403573056
  - # 2
    frequency:    0.7682390763
  - # 3
    frequency:    1.5205989304
  - # 4
    frequency:    1.8116449977
  - # 5
    frequency:    2.4886039624
  - # 6
    frequency:    3.0068906676
  - # 7
    frequency:    3.2383412674
  - # 8
    frequency:    3.6058644047
  - # 9
    frequency:    4.6567635077
  - # 10
    frequency:    4.7383481778
  - # 11
    frequency:    5.0437450060
  - # 12
    frequency:    5.2757169800
  - # 13
    frequency:    5.2926732679
  - # 14
    frequency:    5.3670046741
  - # 15
    frequency:    5.5846548186
  - # 16
    frequency:    5.7324183362
  - # 17
    frequency:   13.4965949613
  - # 18
    frequency:   13.5224033019

- q-position: [    0.1700000,    0.1700000,    0.3400000 ]
  distance:    0.0440096
  band:
  - # 1
    frequency:    0.5765681290
  - # 2
    frequency:    0.8130767533
  - # 3
    frequency:    1.5928559470
  - # 4
    frequency:    1.8100301873
  - # 5
    frequency:    2.4982290569
  - # 6
    frequency:    3.0485353593
  - # 7
    frequency:    3.2452844435
  - # 8
    frequency:    3.5734872368
  - # 9
    frequency:    4.6405151340
  - # 10
    frequency:    4.7416460208
  - # 11
    frequency:    5.0512627902
  - # 12
    frequency:    5.2839840532
  - # 13
    frequency:    5.3253883410
  - # 14
    frequency:    5.3736377125
  - # 15
    frequency:    5.5959234083
  - # 16
    frequency:    5.7409829510
  - # 17
    frequency:   13.5105658491
  - # 18
    frequency:   13.5325686931

- q-position: [    0.1800000,    0.1800000,    0.3600000 ]
  distance:    0.0465984
  band:
  - # 1
    frequency:    0.6129300021
  - # 2
    frequency:    0.8570715859
  - # 3
    frequency:    1.6605109094
  - # 4
    frequency:    1.8114635464
  - # 5
    frequency:    2.5099281827
  - # 6
    frequency:    3.0900895899
  - # 7
    frequency:    3.2523593457
  - # 8
    frequency:    3.5428562638
  - # 9
    frequency:    4.6244486269
  - # 10
    frequency:    4.7429729269
  - # 11
    frequency:    5.0586536333
  - # 12
    frequency:    5.2892490394
  - # 13
    frequency:    5.3570689173
  - # 14
    frequency:    5.3820703958
  - # 15
    frequency:    5.6067604094
  - # 16
    frequency:    5.7500555669
  - # 17
    frequency:   13.5250089878
  - # 18
    frequency:   13.5431960254

- q-position: [    0.1900000,    0.1900000,    0.3800000 ]
  distance:    0.0491872
  band:
  - # 1
    frequency:    0.6493861290
  - # 2
    frequency:    0.9001224774
  - # 3
    frequency:    1.7231736458
  - # 4
    frequency:    1.8158127516
  - # 5
    frequency:    2.5239124961
  - # 6
    frequency:    3.1314003130
  - # 7
    frequency:    3.2595913470
  - # 8
    frequency:    3.5142172778
  - # 9
    frequency:    4.6085660743
  - # 10
    frequency:    4.7422283160
  - # 11
    frequency:    5.0658398358
  - # 12
    frequency:    5.2911595994
  - # 13
    frequency:    5.3872635557
  - # 14
    frequency:    5.3925259922
  - # 15
    frequency:    5.6173151109
  - # 16
    frequency:    5.7597033603
  - # 17
    frequency:   13.5398625807
  - # 18
    frequency:   13.5542549286

- q-position: [    0.2000000,    0.2000000,    0.4000000 ]
  distance:    0.0517760
  band:
  - # 1
    frequency:    0.6858744184
  - # 2
    frequency:    0.9421278606
  - # 3
    frequency:    1.7804773280
  - # 4
    frequency:    1.8228501455
  - # 5
    frequency:    2.5403672394
  - # 6
    frequency:    3.1722947254
  - # 7
    frequency:    3.2670139623
  - # 8
    frequency:    3.4878155887
  - # 9
    frequency:    4.5928750263
  - # 10
    frequency:    4.7393396647
  - # 11
    frequency:    5.0727424282
  - # 12
    frequency:    5.2896850562
  - # 13
    frequency:    5.4049248201
  - # 14
    frequency:    5.4155471375
  - # 15
    frequency:    5.6277454264
  - # 16
    frequency:    5.7700011952
  - # 17
    frequency:   13.5550628699
  - # 18
    frequency:   13.5657124173

- q-position: [    0.2100000,    0.2100000,    0.4200000 ]
  distance:    0.0543648
  band:
  - # 1
    frequency:    0.7223278166
  - # 2
    frequency:    0.9829871215
  - # 3
    frequency:    1.8321130850
  - # 4
    frequency:    1.8322556157
  - # 5
    frequency:    2.5594194556
  - # 6
    frequency:    3.2125556702
  - # 7
    frequency:    3.2746675180
  - # 8
    frequency:    3.4639243939
  - # 9
    frequency:    4.5773879058
  - # 10
    frequency:    4.7342634091
  - # 11
    frequency:    5.0792849884
  - # 12
    frequency:    5.2850260790
  - # 13
    frequency:    5.4189852879
  - # 14
    frequency:    5.4415321308
  - # 15
    frequency:    5.6382038124
  - # 16
    frequency:    5.7810216240
  - # 17
    frequency:   13.5705444923
  - # 18
    frequency:   13.5775328067

- q-position: [    0.2200000,    0.2200000,    0.4400000 ]
  distance:    0.0569536
  band:
  - # 1
    frequency:    0.7586745604
  - # 2
    frequency:    1.0226020339
  - # 3
    frequency:    1.8436238061
  - # 4
    frequency:    1.8778708970
  - # 5
    frequency:    2.5810993616
  - # 6
    frequency:    3.2518583062
  - # 7
    frequency:    3.2825977281
  - # 8
    frequency:    3.4429111634
  - # 9
    frequency:    4.5621215120
  - # 10
    frequency:    4.7269857875
  - # 11
    frequency:    5.0853973098
  - # 12
    frequency:    5.2774676486
  - # 13
    frequency:    5.4343793072
  - # 14
    frequency:    5.4648835392
  - # 15
    frequency:    5.6488254930
  - # 16
    frequency:    5.7928205420
  - # 17
    frequency:   13.5862408612
  - # 18
    frequency:   13.5896776555

- q-position: [    0.2300000,    0.2300000,    0.4600000 ]
  distance:    0.0595424
  band:
  - # 1
    frequency:    0.7948384193
  - # 2
    frequency:    1.0608781801
  - # 3
    frequency:    1.8564756981
  - # 4
    frequency:    1.9176779184
  - # 5
    frequency:    2.6053042059
  - # 6
    frequency:    3.2895740204
  - # 7
    frequency:    3.2908542000
  - # 8
    frequency:    3.4254354667
  - # 9
    frequency:    4.5470965654
  - # 10
    frequency:    4.7175235804
  - # 11
    frequency:    5.0910187697
  - # 12
    frequency:    5.2672968380
  - # 13
    frequency:    5.4508194334
  - # 14
    frequency:    5.4853359357
  - # 15
    frequency:    5.6597201262
  - # 16
    frequency:    5.8054202779
  - # 17
    frequency:   13.6020845684
  - # 18
    frequency:   13.6021057432

- q-position: [    0.2400000,    0.2400000,    0.4800000 ]
  distance:    0.0621312
  band:
  - # 1
    frequency:    0.8307390126
  - # 2
    frequency:    1.0977263334
  - # 3
    frequency:    1.8702743444
  - # 4
    frequency:    1.9516224167
  - # 5
    frequency:    2.6317764401
  - # 6
    frequency:    3.2994888725
  - # 7
    frequency:    3.3240290920
  - # 8
    frequency:    3.4131901762
  - # 9
    frequency:    4.5323372507
  - # 10
    frequency:    4.7059247173
  - # 11
    frequency:    5.0961012385
  - # 12
    frequency:    5.2547850553
  - # 13
    frequency:    5.4680777579
  - # 14
    frequency:    5.5027087127
  - # 15
    frequency:    5.6709672547
  - # 16
    frequency:    5.8187941419
  - # 17
    frequency:   13.6147730869
  - # 18
    frequency:   13.6180078008

- q-position: [    0.2500000,    0.2500000,    0.5000000 ]
  distance:    0.0647200
  band:
  - # 1
    frequency:    0.8662922805
  - # 2
    frequency:    1.1330637788
  - # 3
    frequency:    1.8844443252
  - # 4
    frequency:    1.9799539326
  - # 5
    frequency:    2.6601056712
  - # 6
    frequency:    3.3085543533
  - # 7
    frequency:    3.3497761009
  - # 8
    frequency:    3.4116276012
  - # 9
    frequency:    4.5178707165
  - # 10
    frequency:    4.6922687084
  - # 11
    frequency:    5.1006114151
  - # 12
    frequency:    5.2401959236
  - # 13
    frequency:    5.4859758005
  - # 14
    frequency:    5.5169143975
  - # 15
    frequency:    5.6826151186
  - # 16
    frequency:    5.8328576970
  - # 17
    frequency:   13.6276330020
  - # 18
    frequency:   13.6339427659

- q-position: [    0.2600000,    0.2600000,    0.5200000 ]
  distance:    0.0673088
  band:
  - # 1
    frequency:    0.9014111639
  - # 2
    frequency:    1.1668155542
  - # 3
    frequency:    1.8983942778
  - # 4
    frequency:    2.0030583053
  - # 5
    frequency:    2.6897558911
  - # 6
    frequency:    3.3181020762
  - # 7
    frequency:    3.3586935471
  - # 8
    frequency:    3.4288548690
  - # 9
    frequency:    4.5037265075
  - # 10
    frequency:    4.6766668288
  - # 11
    frequency:    5.1045325218
  - # 12
    frequency:    5.2237956537
  - # 13
    frequency:    5.5043694506
  - # 14
    frequency:    5.5279561177
  - # 15
    frequency:    5.6946819249
  - # 16
    frequency:    5.8474707482
  - # 17
    frequency:   13.6406362100
  - # 18
    frequency:   13.6498221179

- q-position: [    0.2700000,    0.2700000,    0.5400000 ]
  distance:    0.0698976
  band:
  - # 1
    frequency:    0.9360065183
  - # 2
    frequency:    1.1989155921
  - # 3
    frequency:    1.9115415751
  - # 4
    frequency:    2.0214154750
  - # 5
    frequency:    2.7201102901
  - # 6
    frequency:    3.3281801446
  - # 7
    frequency:    3.3575719594
  - # 8
    frequency:    3.4580404361
  - # 9
    frequency:    4.4899359147
  - # 10
    frequency:    4.6592619531
  - # 11
    frequency:    5.1078653413
  - # 12
    frequency:    5.2058589721
  - # 13
    frequency:    5.5231369066
  - # 14
    frequency:    5.5359140536
  - # 15
    frequency:    5.7071585517
  - # 16
    frequency:    5.8624502478
  - # 17
    frequency:   13.6537309963
  - # 18
    frequency:   13.6655793781

- q-position: [    0.2800000,    0.2800000,    0.5600000 ]
  distance:    0.0724864
  band:
  - # 1
    frequency:    0.9699882469
  - # 2
    frequency:    1.2293077484
  - # 3
    frequency:    1.9233378826
  - # 4
    frequency:    2.0355527626
  - # 5
    frequency:    2.7505212298
  - # 6
    frequency:    3.3388306823
  - # 7
    frequency:    3.3552279581
  - # 8
    frequency:    3.4902909405
  - # 9
    frequency:    4.4765312492
  - # 10
    frequency:    4.6402279084
  - # 11
    frequency:    5.1106286136
  - # 12
    frequency:    5.1866704414
  - # 13
    frequency:    5.5409248573
  - # 14
    frequency:    5.5421706130
  - # 15
    frequency:    5.7200118306
  - # 16
    frequency:    5.8775901577
  - # 17
    frequency:   13.6668634174
  - # 18
    frequency:   13.6811493413

- q-position: [    0.2900000,    0.2900000,    0.5800000 ]
  distance:    0.0750752
  band:
  - # 1
    frequency:    1.0032666114
  - # 2
    frequency:    1.2579467050
  - # 3
    frequency:    1.9332939313
  - # 4
    frequency:    2.0460046743
  - # 5
    frequency:    2.7803546377
  - # 6
    frequency:    3.3500865039
  - # 7
    frequency:    3.3543826748
  - # 8
    frequency:    3.5227632304
  - # 9
    frequency:    4.4635450577
  - # 10
    frequency:    4.6197682004
  - # 11
    frequency:    5.1128588251
  - # 12
    frequency:    5.1665226181
  - # 13
    frequency:    5.5431599457
  - # 14
    frequency:    5.5613722879
  - # 15
    frequency:    5.7331878574
  - # 16
    frequency:    5.8926823501
  - # 17
    frequency:   13.6799775567
  - # 18
    frequency:   13.6964684625

- q-position: [    0.3000000,    0.3000000,    0.6000000 ]
  distance:    0.0776640
  band:
  - # 1
    frequency:    1.0357536547
  - # 2
    frequency:    1.2847987370
  - # 3
    frequency:    1.9410015568
  - # 4
    frequency:    2.0532848122
  - # 5
    frequency:    2.8090234803
  - # 6
    frequency:    3.3557569303
  - # 7
    frequency:    3.3619669869
  - # 8
    frequency:    3.5545608646
  - # 9
    frequency:    4.4510093131
  - # 10
    frequency:    4.5981139532
  - # 11
    frequency:    5.1146094358
  - # 12
    frequency:    5.1457123723
  - # 13
    frequency:    5.5428075679
  - # 14
    frequency:    5.5806499529
  - # 15
    frequency:    5.7466150776
  - # 16
    frequency:    5.9075336401
  - # 17
    frequency:   13.6930158263
  - # 18
    frequency:   13.7114752152

- q-position: [    0.3100000,    0.3100000,    0.6200000 ]
  distance:    0.0802528
  band:
  - # 1
    frequency:    1.0673646566
  - # 2
    frequency:    1.3098423349
  - # 3
    frequency:    1.9461510084
  - # 4
    frequency:    2.0578701543
  - # 5
    frequency:    2.8360101147
  - # 6
    frequency:    3.3594909744
  - # 7
    frequency:    3.3744732106
  - # 8
    frequency:    3.5853091506
  - # 9
    frequency:    4.4389546226
  - # 10
    frequency:    4.5755209074
  - # 11
    frequency:    5.1159495843
  - # 12
    frequency:    5.1245362435
  - # 13
    frequency:    5.5400609218
  - # 14
    frequency:    5.5999161195
  - # 15
    frequency:    5.7602071106
  - # 16
    frequency:    5.9219766549
  - # 17
    frequency:   13.7059193118
  - # 18
    frequency:   13.7261104184

- q-position: [    0.3200000,    0.3200000,    0.6400000 ]
  distance:    0.0828416
  band:
  - # 1
    frequency:    1.0980195337
  - # 2
    frequency:    1.3330686739
  - # 3
    frequency:    1.9485418922
  - # 4
    frequency:    2.0601949169
  - # 5
    frequency:    2.8608800388
  - # 6
    frequency:    3.3654900322
  - # 7
    frequency:    3.3875827255
  - # 8
    frequency:    3.6148090762
  - # 9
    frequency:    4.4274095027
  - # 10
    frequency:    4.5522653434
  - # 11
    frequency:    5.1032853339
  - # 12
    frequency:    5.1169623086
  - # 13
    frequency:    5.5351121792
  - # 14
    frequency:    5.6190865567
  - # 15
    frequency:    5.7738654008
  - # 16
    frequency:    5.9358746745
  - # 17
    frequency:   13.7186281527
  - # 18
    frequency:   13.7403175242

- q-position: [    0.3300000,    0.3300000,    0.6600000 ]
  distance:    0.0854304
  band:
  - # 1
    frequency:    1.1276440882
  - # 2
    frequency:    1.3544819207
  - # 3
    frequency:    1.9480868765
  - # 4
    frequency:    2.0606504438
  - # 5
    frequency:    2.8832899244
  - # 6
    frequency:    3.3735311081
  - # 7
    frequency:    3.4012446837
  - # 8
    frequency:    3.6429355792
  - # 9
    frequency:    4.4163997705
  - # 10
    frequency:    4.5286388384
  - # 11
    frequency:    5.0822400136
  - # 12
    frequency:    5.1177423128
  - # 13
    frequency:    5.5281509616
  - # 14
    frequency:    5.6380792772
  - # 15
    frequency:    5.7874818157
  - # 16
    frequency:    5.9491219009
  - # 17
    frequency:   13.7310819544
  - # 18
    frequency:   13.7540428647

- q-position: [    0.3400000,    0.3400000,    0.6800000 ]
  distance:    0.0880192
  band:
  - # 1
    frequency:    1.1561710028
  - # 2
    frequency:    1.3740993620
  - # 3
    frequency:    1.9448082985
  - # 4
    frequency:    2.0595881102
  - # 5
    frequency:    2.9029919029
  - # 6
    frequency:    3.3833099151
  - # 7
    frequency:    3.4153763483
  - # 8
    frequency:    3.6696011863
  - # 9
    frequency:    4.4059480954
  - # 10
    frequency:    4.5049418481
  - # 11
    frequency:    5.0616646090
  - # 12
    frequency:    5.1183932965
  - # 13
    frequency:    5.5193655377
  - # 14
    frequency:    5.6568135417
  - # 15
    frequency:    5.8009412954
  - # 16
    frequency:    5.9616408982
  - # 17
    frequency:   13.7432202247
  - # 18
    frequency:   13.7672358537

- q-position: [    0.3500000,    0.3500000,    0.7000000 ]
  distance:    0.0906080
  band:
  - # 1
    frequency:    1.1835404663
  - # 2
    frequency:    1.3919513374
  - # 3
    frequency:    1.9388288100
  - # 4
    frequency:    2.0573231897
  - # 5
    frequency:    2.9198349627
  - # 6
    frequency:    3.3944710396
  - # 7
    frequency:    3.4298620366
  - # 8
    frequency:    3.6947408192
  - # 9