14.400
 6.743157568964023 7.710143355854945e-15 -0.032954984438366725 7.59265545709906e-15 4.960336515135632 1.0211656533532326e-14 -0.0323713085476017 9.725795118885595e-15 4.468690868293444 2.51895338 0.0 -0.18536357 -0.0 1.30927674 -0.0 -0.03803296 -1.415e-05 1.42063145
 -0.31493914 0.04200068 0.02297028 0.06858483 -0.32734499 -0.01469731 0.009436 -0.01315672 -0.35512002
