phonopy:
  version: 2.15.0
  calculator: aims
  frequency_unit_conversion_factor: 15.633302
  symmetry_tolerance: 1.00000e-05
  configuration:
    create_displacements: ".true."
    dim: "3 3 2"
    calculator: "aims"

physical_unit:
  atomic_mass: "AMU"
  length: "angstrom"
  force_constants: "eV/angstrom^2"

space_group:
  type: "C2/c"
  number: 15
  Hall_symbol: "-C 2yc"

supercell_matrix:
- [   3,   0,   0 ]
- [   0,   3,   0 ]
- [   0,   0,   2 ]

primitive_cell:
  lattice:
  - [     4.541920370000000,    -2.344066380000000,     0.000000000000000 ] # a
  - [     4.541920370000000,     2.344066380000000,     0.000000000000000 ] # b
  - [     4.177044190000000,     0.000000000000000,     7.933451470000000 ] # c
  points:
  - symbol: Ba # 1
    coordinates: [  0.139421700000000,  0.860578300000000,  0.250000000000000 ]
    mass: 137.327000
  - symbol: Ba # 2
    coordinates: [  0.860578300000000,  0.139421700000000,  0.750000000000000 ]
    mass: 137.327000
  - symbol: S  # 3
    coordinates: [  0.483854990000000,  0.198450640000000,  0.521600660000000 ]
    mass: 32.065000
  - symbol: S  # 4
    coordinates: [  0.801549360000000,  0.516145010000000,  0.978399340000000 ]
    mass: 32.065000
  - symbol: S  # 5
    coordinates: [  0.516145010000000,  0.801549360000000,  0.478399340000000 ]
    mass: 32.065000
  - symbol: S  # 6
    coordinates: [  0.198450640000000,  0.483854990000000,  0.021600660000000 ]
    mass: 32.065000
  reciprocal_lattice: # without 2pi
  - [     0.110085593596613,    -0.213304539609497,    -0.057961202746909 ] # a*
  - [     0.110085593596613,     0.213304539609497,    -0.057961202746909 ] # b*
  - [     0.000000000000000,     0.000000000000000,     0.126048543156967 ] # c*

unit_cell:
  lattice:
  - [     4.541920370000000,    -2.344066380000000,     0.000000000000000 ] # a
  - [     4.541920370000000,     2.344066380000000,     0.000000000000000 ] # b
  - [     4.177044190000000,     0.000000000000000,     7.933451470000000 ] # c
  points:
  - symbol: Ba # 1
    coordinates: [  0.139421700000000, -0.139421700000000,  0.250000000000000 ]
    mass: 137.327000
    reduced_to: 1
  - symbol: Ba # 2
    coordinates: [ -0.139421700000000,  0.139421700000000,  0.750000000000000 ]
    mass: 137.327000
    reduced_to: 2
  - symbol: S  # 3
    coordinates: [  0.483854990000000,  0.198450640000000, -0.478399340000000 ]
    mass: 32.065000
    reduced_to: 3
  - symbol: S  # 4
    coordinates: [ -0.198450640000000, -0.483854990000000,  0.978399340000000 ]
    mass: 32.065000
    reduced_to: 4
  - symbol: S  # 5
    coordinates: [ -0.483854990000000, -0.198450640000000,  0.478399340000000 ]
    mass: 32.065000
    reduced_to: 5
  - symbol: S  # 6
    coordinates: [  0.198450640000000,  0.483854990000000,  0.021600660000000 ]
    mass: 32.065000
    reduced_to: 6

supercell:
  lattice:
  - [    13.625761109999999,    -7.032199140000000,     0.000000000000000 ] # a
  - [    13.625761109999999,     7.032199140000000,     0.000000000000000 ] # b
  - [     8.354088380000000,     0.000000000000000,    15.866902939999999 ] # c
  points:
  - symbol: Ba # 1
    coordinates: [  0.046473900000000,  0.953526100000000,  0.125000000000000 ]
    mass: 137.327000
    reduced_to: 1
  - symbol: Ba # 2
    coordinates: [  0.379807233333333,  0.953526100000000,  0.125000000000000 ]
    mass: 137.327000
    reduced_to: 1
  - symbol: Ba # 3
    coordinates: [  0.713140566666667,  0.953526100000000,  0.125000000000000 ]
    mass: 137.327000
    reduced_to: 1
  - symbol: Ba # 4
    coordinates: [  0.046473900000000,  0.286859433333333,  0.125000000000000 ]
    mass: 137.327000
    reduced_to: 1
  - symbol: Ba # 5
    coordinates: [  0.379807233333333,  0.286859433333333,  0.125000000000000 ]
    mass: 137.327000
    reduced_to: 1
  - symbol: Ba # 6
    coordinates: [  0.713140566666667,  0.286859433333333,  0.125000000000000 ]
    mass: 137.327000
    reduced_to: 1
  - symbol: Ba # 7
    coordinates: [  0.046473900000000,  0.620192766666667,  0.125000000000000 ]
    mass: 137.327000
    reduced_to: 1
  - symbol: Ba # 8
    coordinates: [  0.379807233333333,  0.620192766666667,  0.125000000000000 ]
    mass: 137.327000
    reduced_to: 1
  - symbol: Ba # 9
    coordinates: [  0.713140566666667,  0.620192766666667,  0.125000000000000 ]
    mass: 137.327000
    reduced_to: 1
  - symbol: Ba # 10
    coordinates: [  0.046473900000000,  0.953526100000000,  0.625000000000000 ]
    mass: 137.327000
    reduced_to: 1
  - symbol: Ba # 11
    coordinates: [  0.379807233333333,  0.953526100000000,  0.625000000000000 ]
    mass: 137.327000
    reduced_to: 1
  - symbol: Ba # 12
    coordinates: [  0.713140566666667,  0.953526100000000,  0.625000000000000 ]
    mass: 137.327000
    reduced_to: 1
  - symbol: Ba # 13
    coordinates: [  0.046473900000000,  0.286859433333333,  0.625000000000000 ]
    mass: 137.327000
    reduced_to: 1
  - symbol: Ba # 14
    coordinates: [  0.379807233333333,  0.286859433333333,  0.625000000000000 ]
    mass: 137.327000
    reduced_to: 1
  - symbol: Ba # 15
    coordinates: [  0.713140566666667,  0.286859433333333,  0.625000000000000 ]
    mass: 137.327000
    reduced_to: 1
  - symbol: Ba # 16
    coordinates: [  0.046473900000000,  0.620192766666667,  0.625000000000000 ]
    mass: 137.327000
    reduced_to: 1
  - symbol: Ba # 17
    coordinates: [  0.379807233333333,  0.620192766666667,  0.625000000000000 ]
    mass: 137.327000
    reduced_to: 1
  - symbol: Ba # 18
    coordinates: [  0.713140566666667,  0.620192766666667,  0.625000000000000 ]
    mass: 137.327000
    reduced_to: 1
  - symbol: Ba # 19
    coordinates: [  0.953526100000000,  0.046473900000000,  0.375000000000000 ]
    mass: 137.327000
    reduced_to: 19
  - symbol: Ba # 20
    coordinates: [  0.286859433333333,  0.046473900000000,  0.375000000000000 ]
    mass: 137.327000
    reduced_to: 19
  - symbol: Ba # 21
    coordinates: [  0.620192766666667,  0.046473900000000,  0.375000000000000 ]
    mass: 137.327000
    reduced_to: 19
  - symbol: Ba # 22
    coordinates: [  0.953526100000000,  0.379807233333333,  0.375000000000000 ]
    mass: 137.327000
    reduced_to: 19
  - symbol: Ba # 23
    coordinates: [  0.286859433333333,  0.379807233333333,  0.375000000000000 ]
    mass: 137.327000
    reduced_to: 19
  - symbol: Ba # 24
    coordinates: [  0.620192766666667,  0.379807233333333,  0.375000000000000 ]
    mass: 137.327000
    reduced_to: 19
  - symbol: Ba # 25
    coordinates: [  0.953526100000000,  0.713140566666667,  0.375000000000000 ]
    mass: 137.327000
    reduced_to: 19
  - symbol: Ba # 26
    coordinates: [  0.286859433333333,  0.713140566666667,  0.375000000000000 ]
    mass: 137.327000
    reduced_to: 19
  - symbol: Ba # 27
    coordinates: [  0.620192766666667,  0.713140566666667,  0.375000000000000 ]
    mass: 137.327000
    reduced_to: 19
  - symbol: Ba # 28
    coordinates: [  0.953526100000000,  0.046473900000000,  0.875000000000000 ]
    mass: 137.327000
    reduced_to: 19
  - symbol: Ba # 29
    coordinates: [  0.286859433333333,  0.046473900000000,  0.875000000000000 ]
    mass: 137.327000
    reduced_to: 19
  - symbol: Ba # 30
    coordinates: [  0.620192766666667,  0.046473900000000,  0.875000000000000 ]
    mass: 137.327000
    reduced_to: 19
  - symbol: Ba # 31
    coordinates: [  0.953526100000000,  0.379807233333333,  0.875000000000000 ]
    mass: 137.327000
    reduced_to: 19
  - symbol: Ba # 32
    coordinates: [  0.286859433333333,  0.379807233333333,  0.875000000000000 ]
    mass: 137.327000
    reduced_to: 19
  - symbol: Ba # 33
    coordinates: [  0.620192766666667,  0.379807233333333,  0.875000000000000 ]
    mass: 137.327000
    reduced_to: 19
  - symbol: Ba # 34
    coordinates: [  0.953526100000000,  0.713140566666667,  0.875000000000000 ]
    mass: 137.327000
    reduced_to: 19
  - symbol: Ba # 35
    coordinates: [  0.286859433333333,  0.713140566666667,  0.875000000000000 ]
    mass: 137.327000
    reduced_to: 19
  - symbol: Ba # 36
    coordinates: [  0.620192766666667,  0.713140566666667,  0.875000000000000 ]
    mass: 137.327000
    reduced_to: 19
  - symbol: S  # 37
    coordinates: [  0.161284996666667,  0.066150213333333,  0.760800330000000 ]
    mass: 32.065000
    reduced_to: 37
  - symbol: S  # 38
    coordinates: [  0.494618330000000,  0.066150213333333,  0.760800330000000 ]
    mass: 32.065000
    reduced_to: 37
  - symbol: S  # 39
    coordinates: [  0.827951663333333,  0.066150213333333,  0.760800330000000 ]
    mass: 32.065000
    reduced_to: 37
  - symbol: S  # 40
    coordinates: [  0.161284996666667,  0.399483546666667,  0.760800330000000 ]
    mass: 32.065000
    reduced_to: 37
  - symbol: S  # 41
    coordinates: [  0.494618330000000,  0.399483546666667,  0.760800330000000 ]
    mass: 32.065000
    reduced_to: 37
  - symbol: S  # 42
    coordinates: [  0.827951663333333,  0.399483546666667,  0.760800330000000 ]
    mass: 32.065000
    reduced_to: 37
  - symbol: S  # 43
    coordinates: [  0.161284996666667,  0.732816880000000,  0.760800330000000 ]
    mass: 32.065000
    reduced_to: 37
  - symbol: S  # 44
    coordinates: [  0.494618330000000,  0.732816880000000,  0.760800330000000 ]
    mass: 32.065000
    reduced_to: 37
  - symbol: S  # 45
    coordinates: [  0.827951663333333,  0.732816880000000,  0.760800330000000 ]
    mass: 32.065000
    reduced_to: 37
  - symbol: S  # 46
    coordinates: [  0.161284996666667,  0.066150213333333,  0.260800330000000 ]
    mass: 32.065000
    reduced_to: 37
  - symbol: S  # 47
    coordinates: [  0.494618330000000,  0.066150213333333,  0.260800330000000 ]
    mass: 32.065000
    reduced_to: 37
  - symbol: S  # 48
    coordinates: [  0.827951663333333,  0.066150213333333,  0.260800330000000 ]
    mass: 32.065000
    reduced_to: 37
  - symbol: S  # 49
    coordinates: [  0.161284996666667,  0.399483546666667,  0.260800330000000 ]
    mass: 32.065000
    reduced_to: 37
  - symbol: S  # 50
    coordinates: [  0.494618330000000,  0.399483546666667,  0.260800330000000 ]
    mass: 32.065000
    reduced_to: 37
  - symbol: S  # 51
    coordinates: [  0.827951663333333,  0.399483546666667,  0.260800330000000 ]
    mass: 32.065000
    reduced_to: 37
  - symbol: S  # 52
    coordinates: [  0.161284996666667,  0.732816880000000,  0.260800330000000 ]
    mass: 32.065000
    reduced_to: 37
  - symbol: S  # 53
    coordinates: [  0.494618330000000,  0.732816880000000,  0.260800330000000 ]
    mass: 32.065000
    reduced_to: 37
  - symbol: S  # 54
    coordinates: [  0.827951663333333,  0.732816880000000,  0.260800330000000 ]
    mass: 32.065000
    reduced_to: 37
  - symbol: S  # 55
    coordinates: [  0.933849786666667,  0.838715003333333,  0.489199670000000 ]
    mass: 32.065000
    reduced_to: 55
  - symbol: S  # 56
    coordinates: [  0.267183120000000,  0.838715003333333,  0.489199670000000 ]
    mass: 32.065000
    reduced_to: 55
  - symbol: S  # 57
    coordinates: [  0.600516453333333,  0.838715003333333,  0.489199670000000 ]
    mass: 32.065000
    reduced_to: 55
  - symbol: S  # 58
    coordinates: [  0.933849786666667,  0.172048336666667,  0.489199670000000 ]
    mass: 32.065000
    reduced_to: 55
  - symbol: S  # 59
    coordinates: [  0.267183120000000,  0.172048336666667,  0.489199670000000 ]
    mass: 32.065000
    reduced_to: 55
  - symbol: S  # 60
    coordinates: [  0.600516453333333,  0.172048336666667,  0.489199670000000 ]
    mass: 32.065000
    reduced_to: 55
  - symbol: S  # 61
    coordinates: [  0.933849786666667,  0.505381670000000,  0.489199670000000 ]
    mass: 32.065000
    reduced_to: 55
  - symbol: S  # 62
    coordinates: [  0.267183120000000,  0.505381670000000,  0.489199670000000 ]
    mass: 32.065000
    reduced_to: 55
  - symbol: S  # 63
    coordinates: [  0.600516453333333,  0.505381670000000,  0.489199670000000 ]
    mass: 32.065000
    reduced_to: 55
  - symbol: S  # 64
    coordinates: [  0.933849786666667,  0.838715003333333,  0.989199670000000 ]
    mass: 32.065000
    reduced_to: 55
  - symbol: S  # 65
    coordinates: [  0.267183120000000,  0.838715003333333,  0.989199670000000 ]
    mass: 32.065000
    reduced_to: 55
  - symbol: S  # 66
    coordinates: [  0.600516453333333,  0.838715003333333,  0.989199670000000 ]
    mass: 32.065000
    reduced_to: 55
  - symbol: S  # 67
    coordinates: [  0.933849786666667,  0.172048336666667,  0.989199670000000 ]
    mass: 32.065000
    reduced_to: 55
  - symbol: S  # 68
    coordinates: [  0.267183120000000,  0.172048336666667,  0.989199670000000 ]
    mass: 32.065000
    reduced_to: 55
  - symbol: S  # 69
    coordinates: [  0.600516453333333,  0.172048336666667,  0.989199670000000 ]
    mass: 32.065000
    reduced_to: 55
  - symbol: S  # 70
    coordinates: [  0.933849786666667,  0.505381670000000,  0.989199670000000 ]
    mass: 32.065000
    reduced_to: 55
  - symbol: S  # 71
    coordinates: [  0.267183120000000,  0.505381670000000,  0.989199670000000 ]
    mass: 32.065000
    reduced_to: 55
  - symbol: S  # 72
    coordinates: [  0.600516453333333,  0.505381670000000,  0.989199670000000 ]
    mass: 32.065000
    reduced_to: 55
  - symbol: S  # 73
    coordinates: [  0.838715003333333,  0.933849786666667,  0.239199670000000 ]
    mass: 32.065000
    reduced_to: 73
  - symbol: S  # 74
    coordinates: [  0.172048336666667,  0.933849786666667,  0.239199670000000 ]
    mass: 32.065000
    reduced_to: 73
  - symbol: S  # 75
    coordinates: [  0.505381670000000,  0.933849786666667,  0.239199670000000 ]
    mass: 32.065000
    reduced_to: 73
  - symbol: S  # 76
    coordinates: [  0.838715003333333,  0.267183120000000,  0.239199670000000 ]
    mass: 32.065000
    reduced_to: 73
  - symbol: S  # 77
    coordinates: [  0.172048336666667,  0.267183120000000,  0.239199670000000 ]
    mass: 32.065000
    reduced_to: 73
  - symbol: S  # 78
    coordinates: [  0.505381670000000,  0.267183120000000,  0.239199670000000 ]
    mass: 32.065000
    reduced_to: 73
  - symbol: S  # 79
    coordinates: [  0.838715003333333,  0.600516453333333,  0.239199670000000 ]
    mass: 32.065000
    reduced_to: 73
  - symbol: S  # 80
    coordinates: [  0.172048336666667,  0.600516453333333,  0.239199670000000 ]
    mass: 32.065000
    reduced_to: 73
  - symbol: S  # 81
    coordinates: [  0.505381670000000,  0.600516453333333,  0.239199670000000 ]
    mass: 32.065000
    reduced_to: 73
  - symbol: S  # 82
    coordinates: [  0.838715003333333,  0.933849786666667,  0.739199670000000 ]
    mass: 32.065000
    reduced_to: 73
  - symbol: S  # 83
    coordinates: [  0.172048336666667,  0.933849786666667,  0.739199670000000 ]
    mass: 32.065000
    reduced_to: 73
  - symbol: S  # 84
    coordinates: [  0.505381670000000,  0.933849786666667,  0.739199670000000 ]
    mass: 32.065000
    reduced_to: 73
  - symbol: S  # 85
    coordinates: [  0.838715003333333,  0.267183120000000,  0.739199670000000 ]
    mass: 32.065000
    reduced_to: 73
  - symbol: S  # 86
    coordinates: [  0.172048336666667,  0.267183120000000,  0.739199670000000 ]
    mass: 32.065000
    reduced_to: 73
  - symbol: S  # 87
    coordinates: [  0.505381670000000,  0.267183120000000,  0.739199670000000 ]
    mass: 32.065000
    reduced_to: 73
  - symbol: S  # 88
    coordinates: [  0.838715003333333,  0.600516453333333,  0.739199670000000 ]
    mass: 32.065000
    reduced_to: 73
  - symbol: S  # 89
    coordinates: [  0.172048336666667,  0.600516453333333,  0.739199670000000 ]
    mass: 32.065000
    reduced_to: 73
  - symbol: S  # 90
    coordinates: [  0.505381670000000,  0.600516453333333,  0.739199670000000 ]
    mass: 32.065000
    reduced_to: 73
  - symbol: S  # 91
    coordinates: [  0.066150213333333,  0.161284996666667,  0.010800330000000 ]
    mass: 32.065000
    reduced_to: 91
  - symbol: S  # 92
    coordinates: [  0.399483546666667,  0.161284996666667,  0.010800330000000 ]
    mass: 32.065000
    reduced_to: 91
  - symbol: S  # 93
    coordinates: [  0.732816880000000,  0.161284996666667,  0.010800330000000 ]
    mass: 32.065000
    reduced_to: 91
  - symbol: S  # 94
    coordinates: [  0.066150213333333,  0.494618330000000,  0.010800330000000 ]
    mass: 32.065000
    reduced_to: 91
  - symbol: S  # 95
    coordinates: [  0.399483546666667,  0.494618330000000,  0.010800330000000 ]
    mass: 32.065000
    reduced_to: 91
  - symbol: S  # 96
    coordinates: [  0.732816880000000,  0.494618330000000,  0.010800330000000 ]
    mass: 32.065000
    reduced_to: 91
  - symbol: S  # 97
    coordinates: [  0.066150213333333,  0.827951663333333,  0.010800330000000 ]
    mass: 32.065000
    reduced_to: 91
  - symbol: S  # 98
    coordinates: [  0.399483546666667,  0.827951663333333,  0.010800330000000 ]
    mass: 32.065000
    reduced_to: 91
  - symbol: S  # 99
    coordinates: [  0.732816880000000,  0.827951663333333,  0.010800330000000 ]
    mass: 32.065000
    reduced_to: 91
  - symbol: S  # 100
    coordinates: [  0.066150213333333,  0.161284996666667,  0.510800330000000 ]
    mass: 32.065000
    reduced_to: 91
  - symbol: S  # 101
    coordinates: [  0.399483546666667,  0.161284996666667,  0.510800330000000 ]
    mass: 32.065000
    reduced_to: 91
  - symbol: S  # 102
    coordinates: [  0.732816880000000,  0.161284996666667,  0.510800330000000 ]
    mass: 32.065000
    reduced_to: 91
  - symbol: S  # 103
    coordinates: [  0.066150213333333,  0.494618330000000,  0.510800330000000 ]
    mass: 32.065000
    reduced_to: 91
  - symbol: S  # 104
    coordinates: [  0.399483546666667,  0.494618330000000,  0.510800330000000 ]
    mass: 32.065000
    reduced_to: 91
  - symbol: S  # 105
    coordinates: [  0.732816880000000,  0.494618330000000,  0.510800330000000 ]
    mass: 32.065000
    reduced_to: 91
  - symbol: S  # 106
    coordinates: [  0.066150213333333,  0.827951663333333,  0.510800330000000 ]
    mass: 32.065000
    reduced_to: 91
  - symbol: S  # 107
    coordinates: [  0.399483546666667,  0.827951663333333,  0.510800330000000 ]
    mass: 32.065000
    reduced_to: 91
  - symbol: S  # 108
    coordinates: [  0.732816880000000,  0.827951663333333,  0.510800330000000 ]
    mass: 32.065000
    reduced_to: 91

displacements:
- atom:    1
  displacement:
    [   0.0088863266434539, -0.0045861965489762,  0.0000000000000000 ]
- atom:    1
  displacement:
    [  -0.0088863266434539,  0.0045861965489762,  0.0000000000000000 ]
- atom:    1
  displacement:
    [   0.0046588122917133,  0.0000000000000000,  0.0088484726382908 ]
- atom:   37
  displacement:
    [   0.0088863266434539, -0.0045861965489762,  0.0000000000000000 ]
- atom:   37
  displacement:
    [  -0.0088863266434539,  0.0045861965489762,  0.0000000000000000 ]
- atom:   37
  displacement:
    [   0.0088863266434539,  0.0045861965489762,  0.0000000000000000 ]
- atom:   37
  displacement:
    [  -0.0088863266434539, -0.0045861965489762,  0.0000000000000000 ]
- atom:   37
  displacement:
    [   0.0046588122917133,  0.0000000000000000,  0.0088484726382908 ]
- atom:   37
  displacement:
    [  -0.0046588122917133,  0.0000000000000000, -0.0088484726382908 ]
