calculator: aims
length_unit: angstrom
nqpoint: 561    
npath: 11     
segment_nqpoint:
- 51
- 51
- 51
- 51
- 51
- 51
- 51
- 51
- 51
- 51
- 51
labels:
- [ 'G', 'X' ]
- [ 'X', 'W' ]
- [ 'W', 'K' ]
- [ 'K', 'G' ]
- [ 'G', 'L' ]
- [ 'L', 'U' ]
- [ 'U', 'W' ]
- [ 'W', 'L' ]
- [ 'L', 'K:' ]
- [ 'K:', 'U' ]
- [ 'U', 'X' ]
reciprocal_lattice:
- [  -0.19358462,   0.19358462,   0.19358462 ] # a*
- [   0.19358462,  -0.19358462,   0.19358462 ] # b*
- [   0.19358462,   0.19358462,  -0.19358462 ] # c*
natom: 2      
lattice:
- [     0.000000000000000,     2.582849810000000,     2.582849810000000 ] # a
- [     2.582849810000000,     0.000000000000000,     2.582849810000000 ] # b
- [     2.582849810000000,     2.582849810000000,     0.000000000000000 ] # c
points:
- symbol: S  # 1
  coordinates: [  0.500000000000000,  0.500000000000000,  0.500000000000000 ]
  mass: 32.065000
- symbol: Zr # 2
  coordinates: [  0.000000000000000,  0.000000000000000,  0.000000000000000 ]
  mass: 91.224000

phonon:
- q-position: [    0.0000000,    0.0000000,    0.0000000 ]
  distance:    0.0000000
  band:
  - # 1
    frequency:    0.0000000390
  - # 2
    frequency:    0.0000000760
  - # 3
    frequency:    0.0000001317
  - # 4
    frequency:    7.8523185265
  - # 5
    frequency:    7.8523185265
  - # 6
    frequency:    7.8523185265

- q-position: [    0.0100000,    0.0000000,    0.0100000 ]
  distance:    0.0038717
  band:
  - # 1
    frequency:    0.0822461607
  - # 2
    frequency:    0.0822461607
  - # 3
    frequency:    0.2857825193
  - # 4
    frequency:    7.8541108527
  - # 5
    frequency:    7.8541108527
  - # 6
    frequency:    7.8573776010

- q-position: [    0.0200000,    0.0000000,    0.0200000 ]
  distance:    0.0077434
  band:
  - # 1
    frequency:    0.1643279343
  - # 2
    frequency:    0.1643279343
  - # 3
    frequency:    0.5690125885
  - # 4
    frequency:    7.8594630033
  - # 5
    frequency:    7.8594630033
  - # 6
    frequency:    7.8725774241

- q-position: [    0.0300000,    0.0000000,    0.0300000 ]
  distance:    0.0116151
  band:
  - # 1
    frequency:    0.2460773148
  - # 2
    frequency:    0.2460773148
  - # 3
    frequency:    0.8471718688
  - # 4
    frequency:    7.8683011291
  - # 5
    frequency:    7.8683011291
  - # 6
    frequency:    7.8979797472

- q-position: [    0.0400000,    0.0000000,    0.0400000 ]
  distance:    0.0154868
  band:
  - # 1
    frequency:    0.3273190137
  - # 2
    frequency:    0.3273190137
  - # 3
    frequency:    1.1178125446
  - # 4
    frequency:    7.8805042447
  - # 5
    frequency:    7.8805042447
  - # 6
    frequency:    7.9336674926

- q-position: [    0.0500000,    0.0000000,    0.0500000 ]
  distance:    0.0193585
  band:
  - # 1
    frequency:    0.4078667223
  - # 2
    frequency:    0.4078667223
  - # 3
    frequency:    1.3785977787
  - # 4
    frequency:    7.8959073065
  - # 5
    frequency:    7.8959073065
  - # 6
    frequency:    7.9797154481

- q-position: [    0.0600000,    0.0000000,    0.0600000 ]
  distance:    0.0232302
  band:
  - # 1
    frequency:    0.4875193015
  - # 2
    frequency:    0.4875193015
  - # 3
    frequency:    1.6273468352
  - # 4
    frequency:    7.9143053886
  - # 5
    frequency:    7.9143053886
  - # 6
    frequency:    8.0361510380

- q-position: [    0.0700000,    0.0000000,    0.0700000 ]
  distance:    0.0271018
  band:
  - # 1
    frequency:    0.5660569366
  - # 2
    frequency:    0.5660569366
  - # 3
    frequency:    1.8620838546
  - # 4
    frequency:    7.9354588256
  - # 5
    frequency:    7.9354588256
  - # 6
    frequency:    8.1029078117

- q-position: [    0.0800000,    0.0000000,    0.0800000 ]
  distance:    0.0309735
  band:
  - # 1
    frequency:    0.6432373345
  - # 2
    frequency:    0.6432373345
  - # 3
    frequency:    2.0810872869
  - # 4
    frequency:    7.9590991606
  - # 5
    frequency:    7.9590991606
  - # 6
    frequency:    8.1797758778

- q-position: [    0.0900000,    0.0000000,    0.0900000 ]
  distance:    0.0348452
  band:
  - # 1
    frequency:    0.7187920715
  - # 2
    frequency:    0.7187920715
  - # 3
    frequency:    2.2829350819
  - # 4
    frequency:    7.9849357076
  - # 5
    frequency:    7.9849357076
  - # 6
    frequency:    8.2663550853

- q-position: [    0.1000000,    0.0000000,    0.1000000 ]
  distance:    0.0387169
  band:
  - # 1
    frequency:    0.7924232206
  - # 2
    frequency:    0.7924232206
  - # 3
    frequency:    2.4665394755
  - # 4
    frequency:    8.0126625166
  - # 5
    frequency:    8.0126625166
  - # 6
    frequency:    8.3620177359

- q-position: [    0.1100000,    0.0000000,    0.1100000 ]
  distance:    0.0425886
  band:
  - # 1
    frequency:    0.8638003914
  - # 2
    frequency:    0.8638003914
  - # 3
    frequency:    2.6311652379
  - # 4
    frequency:    8.0419655181
  - # 5
    frequency:    8.0419655181
  - # 6
    frequency:    8.4658873759

- q-position: [    0.1200000,    0.0000000,    0.1200000 ]
  distance:    0.0464603
  band:
  - # 1
    frequency:    0.9325583021
  - # 2
    frequency:    0.9325583021
  - # 3
    frequency:    2.7764268857
  - # 4
    frequency:    8.0725296154
  - # 5
    frequency:    8.0725296154
  - # 6
    frequency:    8.5768384218

- q-position: [    0.1300000,    0.0000000,    0.1300000 ]
  distance:    0.0503320
  band:
  - # 1
    frequency:    0.9982949706
  - # 2
    frequency:    0.9982949706
  - # 3
    frequency:    2.9022634142
  - # 4
    frequency:    8.1040455030
  - # 5
    frequency:    8.1040455030
  - # 6
    frequency:    8.6935181974

- q-position: [    0.1400000,    0.0000000,    0.1400000 ]
  distance:    0.0542037
  band:
  - # 1
    frequency:    1.0605705674
  - # 2
    frequency:    1.0605705674
  - # 3
    frequency:    3.0088927653
  - # 4
    frequency:    8.1362159967
  - # 5
    frequency:    8.1362159967
  - # 6
    frequency:    8.8143892146

- q-position: [    0.1500000,    0.0000000,    0.1500000 ]
  distance:    0.0580754
  band:
  - # 1
    frequency:    1.1189069092
  - # 2
    frequency:    1.1189069092
  - # 3
    frequency:    3.0967514248
  - # 4
    frequency:    8.1687616896
  - # 5
    frequency:    8.1687616896
  - # 6
    frequency:    8.9377862799

- q-position: [    0.1600000,    0.0000000,    0.1600000 ]
  distance:    0.0619471
  band:
  - # 1
    frequency:    1.1727875058
  - # 2
    frequency:    1.1727875058
  - # 3
    frequency:    3.1664263152
  - # 4
    frequency:    8.2014257696
  - # 5
    frequency:    8.2014257696
  - # 6
    frequency:    9.0619811748

- q-position: [    0.1700000,    0.0000000,    0.1700000 ]
  distance:    0.0658188
  band:
  - # 1
    frequency:    1.2216579844
  - # 2
    frequency:    1.2216579844
  - # 3
    frequency:    3.2185861817
  - # 4
    frequency:    8.2339778745
  - # 5
    frequency:    8.2339778745
  - # 6
    frequency:    9.1852475706

- q-position: [    0.1800000,    0.0000000,    0.1800000 ]
  distance:    0.0696905
  band:
  - # 1
    frequency:    1.2649266202
  - # 2
    frequency:    1.2649266202
  - # 3
    frequency:    3.2539182482
  - # 4
    frequency:    8.2662168930
  - # 5
    frequency:    8.2662168930
  - # 6
    frequency:    9.3059201952

- q-position: [    0.1900000,    0.0000000,    0.1900000 ]
  distance:    0.0735622
  band:
  - # 1
    frequency:    1.3019645824
  - # 2
    frequency:    1.3019645824
  - # 3
    frequency:    3.2730737150
  - # 4
    frequency:    8.2979726624
  - # 5
    frequency:    8.2979726624
  - # 6
    frequency:    9.4224443967

- q-position: [    0.2000000,    0.0000000,    0.2000000 ]
  distance:    0.0774338
  band:
  - # 1
    frequency:    1.3321053415
  - # 2
    frequency:    1.3321053415
  - # 3
    frequency:    3.2766233860
  - # 4
    frequency:    8.3291065544
  - # 5
    frequency:    8.3291065544
  - # 6
    frequency:    9.5334144299

- q-position: [    0.2100000,    0.0000000,    0.2100000 ]
  distance:    0.0813055
  band:
  - # 1
    frequency:    1.3546424616
  - # 2
    frequency:    1.3546424616
  - # 3
    frequency:    3.2650228224
  - # 4
    frequency:    8.3595109787
  - # 5
    frequency:    8.3595109787
  - # 6
    frequency:    9.6376005394

- q-position: [    0.2200000,    0.0000000,    0.2200000 ]
  distance:    0.0851772
  band:
  - # 1
    frequency:    1.3688246550
  - # 2
    frequency:    1.3688246550
  - # 3
    frequency:    3.2385850866
  - # 4
    frequency:    8.3891078756
  - # 5
    frequency:    8.3891078756
  - # 6
    frequency:    9.7339660259

- q-position: [    0.2300000,    0.0000000,    0.2300000 ]
  distance:    0.0890489
  band:
  - # 1
    frequency:    1.3738464310
  - # 2
    frequency:    1.3738464310
  - # 3
    frequency:    3.1974582977
  - # 4
    frequency:    8.4178463007
  - # 5
    frequency:    8.4178463007
  - # 6
    frequency:    9.8216760029

- q-position: [    0.2400000,    0.0000000,    0.2400000 ]
  distance:    0.0929206
  band:
  - # 1
    frequency:    1.3688317441
  - # 2
    frequency:    1.3688317441
  - # 3
    frequency:    3.1416046242
  - # 4
    frequency:    8.4456992421
  - # 5
    frequency:    8.4456992421
  - # 6
    frequency:    9.9000996175

- q-position: [    0.2500000,    0.0000000,    0.2500000 ]
  distance:    0.0967923
  band:
  - # 1
    frequency:    1.3528064062
  - # 2
    frequency:    1.3528064062
  - # 3
    frequency:    3.0707766845
  - # 4
    frequency:    8.4726598309
  - # 5
    frequency:    8.4726598309
  - # 6
    frequency:    9.9688073148

- q-position: [    0.2600000,    0.0000000,    0.2600000 ]
  distance:    0.1006640
  band:
  - # 1
    frequency:    1.3246519663
  - # 2
    frequency:    1.3246519663
  - # 3
    frequency:    2.9844861870
  - # 4
    frequency:    8.4987371296
  - # 5
    frequency:    8.4987371296
  - # 6
    frequency:   10.0275644040

- q-position: [    0.2700000,    0.0000000,    0.2700000 ]
  distance:    0.1045357
  band:
  - # 1
    frequency:    1.2830276638
  - # 2
    frequency:    1.2830276638
  - # 3
    frequency:    2.8819574067
  - # 4
    frequency:    8.5239516921
  - # 5
    frequency:    8.5239516921
  - # 6
    frequency:   10.0763218459

- q-position: [    0.2800000,    0.0000000,    0.2800000 ]
  distance:    0.1084074
  band:
  - # 1
    frequency:    1.2262340229
  - # 2
    frequency:    1.2262340229
  - # 3
    frequency:    2.7620535902
  - # 4
    frequency:    8.5483310927
  - # 5
    frequency:    8.5483310927
  - # 6
    frequency:   10.1152048833

- q-position: [    0.2900000,    0.0000000,    0.2900000 ]
  distance:    0.1122791
  band:
  - # 1
    frequency:    1.1519610343
  - # 2
    frequency:    1.1519610343
  - # 3
    frequency:    2.6231551560
  - # 4
    frequency:    8.5719056110
  - # 5
    frequency:    8.5719056110
  - # 6
    frequency:   10.1444998992

- q-position: [    0.3000000,    0.0000000,    0.3000000 ]
  distance:    0.1161508
  band:
  - # 1
    frequency:    1.0567827685
  - # 2
    frequency:    1.0567827685
  - # 3
    frequency:    2.4629486924
  - # 4
    frequency:    8.5947042464
  - # 5
    frequency:    8.5947042464
  - # 6
    frequency:   10.1646397333

- q-position: [    0.3100000,    0.0000000,    0.3100000 ]
  distance:    0.1200225
  band:
  - # 1
    frequency:    0.9350066948
  - # 2
    frequency:    0.9350066948
  - # 3
    frequency:    2.2780395611
  - # 4
    frequency:    8.6167512064
  - # 5
    frequency:    8.6167512064
  - # 6
    frequency:   10.1761875970

- q-position: [    0.3200000,    0.0000000,    0.3200000 ]
  distance:    0.1238942
  band:
  - # 1
    frequency:    0.7754688321
  - # 2
    frequency:    0.7754688321
  - # 3
    frequency:    2.0631809399
  - # 4
    frequency:    8.6380629853
  - # 5
    frequency:    8.6380629853
  - # 6
    frequency:   10.1798197060

- q-position: [    0.3300000,    0.0000000,    0.3300000 ]
  distance:    0.1277658
  band:
  - # 1
    frequency:    0.5484986614
  - # 2
    frequency:    0.5484986614
  - # 3
    frequency:    1.8095482823
  - # 4
    frequency:    8.6586461099
  - # 5
    frequency:    8.6586461099
  - # 6
    frequency:   10.1763067783

- q-position: [    0.3400000,    0.0000000,    0.3400000 ]
  distance:    0.1316375
  band:
  - # 1
    frequency:   -0.1544529280
  - # 2
    frequency:   -0.1544529280
  - # 3
    frequency:    1.5000991523
  - # 4
    frequency:    8.6784955953
  - # 5
    frequency:    8.6784955953
  - # 6
    frequency:   10.1664946125

- q-position: [    0.3500000,    0.0000000,    0.3500000 ]
  distance:    0.1355092
  band:
  - # 1
    frequency:   -0.6072195067
  - # 2
    frequency:   -0.6072195067
  - # 3
    frequency:    1.0921926907
  - # 4
    frequency:    8.6975941156
  - # 5
    frequency:    8.6975941156
  - # 6
    frequency:   10.1512840541

- q-position: [    0.3600000,    0.0000000,    0.3600000 ]
  distance:    0.1393809
  band:
  - # 1
    frequency:   -0.8538756402
  - # 2
    frequency:   -0.8538756402
  - # 3
    frequency:    0.3347291806
  - # 4
    frequency:    8.7159118649
  - # 5
    frequency:    8.7159118649
  - # 6
    frequency:   10.1316107510

- q-position: [    0.3700000,    0.0000000,    0.3700000 ]
  distance:    0.1432526
  band:
  - # 1
    frequency:   -1.0487645280
  - # 2
    frequency:   -1.0487645280
  - # 3
    frequency:   -0.9905838302
  - # 4
    frequency:    8.7334070549
  - # 5
    frequency:    8.7334070549
  - # 6
    frequency:   10.1084251822

- q-position: [    0.3800000,    0.0000000,    0.3800000 ]
  distance:    0.1471243
  band:
  - # 1
    frequency:   -1.4404651722
  - # 2
    frequency:   -1.2147527678
  - # 3
    frequency:   -1.2147527678
  - # 4
    frequency:    8.7500269777
  - # 5
    frequency:    8.7500269777
  - # 6
    frequency:   10.0826734953

- q-position: [    0.3900000,    0.0000000,    0.3900000 ]
  distance:    0.1509960
  band:
  - # 1
    frequency:   -1.7764962215
  - # 2
    frequency:   -1.3603219201
  - # 3
    frequency:   -1.3603219201
  - # 4
    frequency:    8.7657095452
  - # 5
    frequency:    8.7657095452
  - # 6
    frequency:   10.0552796927

- q-position: [    0.4000000,    0.0000000,    0.4000000 ]
  distance:    0.1548677
  band:
  - # 1
    frequency:   -2.0519184358
  - # 2
    frequency:   -1.4894705134
  - # 3
    frequency:   -1.4894705134
  - # 4
    frequency:    8.7803852123
  - # 5
    frequency:    8.7803852123
  - # 6
    frequency:   10.0271296616

- q-position: [    0.4100000,    0.0000000,    0.4100000 ]
  distance:    0.1587394
  band:
  - # 1
    frequency:   -2.2855576928
  - # 2
    frequency:   -1.6043036287
  - # 3
    frequency:   -1.6043036287
  - # 4
    frequency:    8.7939791832
  - # 5
    frequency:    8.7939791832
  - # 6
    frequency:    9.9990574438

- q-position: [    0.4200000,    0.0000000,    0.4200000 ]
  distance:    0.1626111
  band:
  - # 1
    frequency:   -2.4862466135
  - # 2
    frequency:   -1.7059881567
  - # 3
    frequency:   -1.7059881567
  - # 4
    frequency:    8.8064138037
  - # 5
    frequency:    8.8064138037
  - # 6
    frequency:    9.9718339998

- q-position: [    0.4300000,    0.0000000,    0.4300000 ]
  distance:    0.1664828
  band:
  - # 1
    frequency:   -2.6586946889
  - # 2
    frequency:   -1.7951800985
  - # 3
    frequency:   -1.7951800985
  - # 4
    frequency:    8.8176110455
  - # 5
    frequency:    8.8176110455
  - # 6
    frequency:    9.9461585578

- q-position: [    0.4400000,    0.0000000,    0.4400000 ]
  distance:    0.1703545
  band:
  - # 1
    frequency:   -2.8055797810
  - # 2
    frequency:   -1.8722415175
  - # 3
    frequency:   -1.8722415175
  - # 4
    frequency:    8.8274949907
  - # 5
    frequency:    8.8274949907
  - # 6
    frequency:    9.9226524606

- q-position: [    0.4500000,    0.0000000,    0.4500000 ]
  distance:    0.1742262
  band:
  - # 1
    frequency:   -2.9284694875
  - # 2
    frequency:   -1.9373610407
  - # 3
    frequency:   -1.9373610407
  - # 4
    frequency:    8.8359942352
  - # 5
    frequency:    8.8359942352
  - # 6
    frequency:    9.9018552693

- q-position: [    0.4600000,    0.0000000,    0.4600000 ]
  distance:    0.1780979
  band:
  - # 1
    frequency:   -3.0282866745
  - # 2
    frequency:   -1.9906253201
  - # 3
    frequency:   -1.9906253201
  - # 4
    frequency:    8.8430441344
  - # 5
    frequency:    8.8430441344
  - # 6
    frequency:    9.8842227529

- q-position: [    0.4700000,    0.0000000,    0.4700000 ]
  distance:    0.1819695
  band:
  - # 1
    frequency:   -3.1055679331
  - # 2
    frequency:   -2.0320634309
  - # 3
    frequency:   -2.0320634309
  - # 4
    frequency:    8.8485888235
  - # 5
    frequency:    8.8485888235
  - # 6
    frequency:    9.8701263153

- q-position: [    0.4800000,    0.0000000,    0.4800000 ]
  distance:    0.1858412
  band:
  - # 1
    frequency:   -3.1606162852
  - # 2
    frequency:   -2.0616752438
  - # 3
    frequency:   -2.0616752438
  - # 4
    frequency:    8.8525829544
  - # 5
    frequency:    8.8525829544
  - # 6
    frequency:    9.8598533735

- q-position: [    0.4900000,    0.0000000,    0.4900000 ]
  distance:    0.1897129
  band:
  - # 1
    frequency:   -3.1935941710
  - # 2
    frequency:   -2.0794496481
  - # 3
    frequency:   -2.0794496481
  - # 4
    frequency:    8.8549930986
  - # 5
    frequency:    8.8549930986
  - # 6
    frequency:    9.8536082207

- q-position: [    0.5000000,    0.0000000,    0.5000000 ]
  distance:    0.1935846
  band:
  - # 1
    frequency:   -3.2045792224
  - # 2
    frequency:   -2.0853758662
  - # 3
    frequency:   -2.0853758662
  - # 4
    frequency:    8.8557987789
  - # 5
    frequency:    8.8557987789
  - # 6
    frequency:    9.8515129639

- q-position: [    0.5000000,    0.0000000,    0.5000000 ]
  distance:    0.1935846
  band:
  - # 1
    frequency:   -3.2045792224
  - # 2
    frequency:   -2.0853758662
  - # 3
    frequency:   -2.0853758662
  - # 4
    frequency:    8.8557987789
  - # 5
    frequency:    8.8557987789
  - # 6
    frequency:    9.8515129639

- q-position: [    0.5000000,    0.0050000,    0.5050000 ]
  distance:    0.1955205
  band:
  - # 1
    frequency:   -3.2043989242
  - # 2
    frequency:   -2.0862758436
  - # 3
    frequency:   -2.0824143533
  - # 4
    frequency:    8.8560607391
  - # 5
    frequency:    8.8565812556
  - # 6
    frequency:    9.8511810267

- q-position: [    0.5000000,    0.0100000,    0.5100000 ]
  distance:    0.1974563
  band:
  - # 1
    frequency:   -3.2038589165
  - # 2
    frequency:   -2.0889697395
  - # 3
    frequency:   -2.0735279979
  - # 4
    frequency:    8.8568460248
  - # 5
    frequency:    8.8589279496
  - # 6
    frequency:    9.8501860640

- q-position: [    0.5000000,    0.0150000,    0.5150000 ]
  distance:    0.1993922
  band:
  - # 1
    frequency:   -3.2029618516
  - # 2
    frequency:   -2.0934395419
  - # 3
    frequency:   -2.0587109819
  - # 4
    frequency:    8.8581528543
  - # 5
    frequency:    8.8628366099
  - # 6
    frequency:    9.8485306180

- q-position: [    0.5000000,    0.0200000,    0.5200000 ]
  distance:    0.2013280
  band:
  - # 1
    frequency:   -3.2017121213
  - # 2
    frequency:   -2.0996555502
  - # 3
    frequency:   -2.0379523550
  - # 4
    frequency:    8.8599782692
  - # 5
    frequency:    8.8683033450
  - # 6
    frequency:    9.8462189113

- q-position: [    0.5000000,    0.0250000,    0.5250000 ]
  distance:    0.2032639
  band:
  - # 1
    frequency:   -3.2001158142
  - # 2
    frequency:   -2.1075768422
  - # 3
    frequency:   -2.0112340589
  - # 4
    frequency:    8.8623181506
  - # 5
    frequency:    8.8753224160
  - # 6
    frequency:    9.8432568251

- q-position: [    0.5000000,    0.0300000,    0.5300000 ]
  distance:    0.2051997
  band:
  - # 1
    frequency:   -3.1981806559
  - # 2
    frequency:   -2.1171519046
  - # 3
    frequency:   -1.9785279536
  - # 4
    frequency:    8.8651672420
  - # 5
    frequency:    8.8838859538
  - # 6
    frequency:    9.8396518690

- q-position: [    0.5000000,    0.0350000,    0.5350000 ]
  distance:    0.2071355
  band:
  - # 1
    frequency:   -3.1959159333
  - # 2
    frequency:   -2.1283194064
  - # 3
    frequency:   -1.9397916046
  - # 4
    frequency:    8.8685191790
  - # 5
    frequency:    8.8939836064
  - # 6
    frequency:    9.8354131426

- q-position: [    0.5000000,    0.0400000,    0.5400000 ]
  distance:    0.2090714
  band:
  - # 1
    frequency:   -3.1933324021
  - # 2
    frequency:   -2.1410090887
  - # 3
    frequency:   -1.8949624569
  - # 4
    frequency:    8.8723665252
  - # 5
    frequency:    8.9056021258
  - # 6
    frequency:    9.8305512885

- q-position: [    0.5000000,    0.0450000,    0.5450000 ]
  distance:    0.2110072
  band:
  - # 1
    frequency:   -3.1904421793
  - # 2
    frequency:   -2.1551427457
  - # 3
    frequency:   -1.8439498279
  - # 4
    frequency:    8.8767008145
  - # 5
    frequency:    8.9187249032
  - # 6
    frequency:    9.8250784380

- q-position: [    0.5000000,    0.0500000,    0.5500000 ]
  distance:    0.2129431
  band:
  - # 1
    frequency:   -3.1872586209
  - # 2
    frequency:   -2.1706352673
  - # 3
    frequency:   -1.7866238383
  - # 4
    frequency:    8.8815126003
  - # 5
    frequency:    8.9333314658
  - # 6
    frequency:    9.8190081485

- q-position: [    0.5000000,    0.0550000,    0.5550000 ]
  distance:    0.2148789
  band:
  - # 1
    frequency:   -3.1837961854
  - # 2
    frequency:   -2.1873957177
  - # 3
    frequency:   -1.7227998919
  - # 4
    frequency:    8.8867915100
  - # 5
    frequency:    8.9493969480
  - # 6
    frequency:    9.8123553346

- q-position: [    0.5000000,    0.0600000,    0.5600000 ]
  distance:    0.2168148
  band:
  - # 1
    frequency:   -3.1800702836
  - # 2
    frequency:   -2.2053284238
  - # 3
    frequency:   -1.6522164430
  - # 4
    frequency:    8.8925263069
  - # 5
    frequency:    8.9668915515
  - # 6
    frequency:    9.8051361914

- q-position: [    0.5000000,    0.0650000,    0.5650000 ]
  distance:    0.2187506
  band:
  - # 1
    frequency:   -3.1760971171
  - # 2
    frequency:   -2.2243340507
  - # 3
    frequency:   -1.5745022218
  - # 4
    frequency:    8.8987049566
  - # 5
    frequency:    8.9857800112
  - # 6
    frequency:    9.7973681120

- q-position: [    0.5000000,    0.0700000,    0.5700000 ]
  distance:    0.2206865
  band:
  - # 1
    frequency:   -3.1718935048
  - # 2
    frequency:   -2.2443106467
  - # 3
    frequency:   -1.4891261389
  - # 4
    frequency:    8.9053146993
  - # 5
    frequency:    9.0060210826
  - # 6
    frequency:    9.7890695986

- q-position: [    0.5000000,    0.0750000,    0.5750000 ]
  distance:    0.2226223
  band:
  - # 1
    frequency:   -3.1674767002
  - # 2
    frequency:   -2.2651546396
  - # 3
    frequency:   -1.3953171560
  - # 4
    frequency:    8.9123421277
  - # 5
    frequency:    9.0275670675
  - # 6
    frequency:    9.7802601685

- q-position: [    0.5000000,    0.0800000,    0.5800000 ]
  distance:    0.2245582
  band:
  - # 1
    frequency:   -3.1628642000
  - # 2
    frequency:   -2.2867617746
  - # 3
    frequency:   -1.2919285655
  - # 4
    frequency:    8.9197732684
  - # 5
    frequency:    9.0503633956
  - # 6
    frequency:    9.7709602552

- q-position: [    0.5000000,    0.0850000,    0.5850000 ]
  distance:    0.2264940
  band:
  - # 1
    frequency:   -3.1580735454
  - # 2
    frequency:   -2.3090279841
  - # 3
    frequency:   -1.1771905135
  - # 4
    frequency:    8.9275936683
  - # 5
    frequency:    9.0743482771
  - # 6
    frequency:    9.7611911048

- q-position: [    0.5000000,    0.0900000,    0.5900000 ]
  distance:    0.2284299
  band:
  - # 1
    frequency:   -3.1531221189
  - # 2
    frequency:   -2.3318501842
  - # 3
    frequency:   -1.0482119541
  - # 4
    frequency:    8.9357884832
  - # 5
    frequency:    9.0994524404
  - # 6
    frequency:    9.7509746692

- q-position: [    0.5000000,    0.0950000,    0.5950000 ]
  distance:    0.2303657
  band:
  - # 1
    frequency:   -3.1480269366
  - # 2
    frequency:   -2.3551269956
  - # 3
    frequency:   -0.8998277115
  - # 4
    frequency:    8.9443425704
  - # 5
    frequency:    9.1255989692
  - # 6
    frequency:    9.7403334961

- q-position: [    0.5000000,    0.1000000,    0.6000000 ]
  distance:    0.2323015
  band:
  - # 1
    frequency:   -3.1428044396
  - # 2
    frequency:   -2.3787593884
  - # 3
    frequency:   -0.7212754797
  - # 4
    frequency:    8.9532405811
  - # 5
    frequency:    9.1527032473
  - # 6
    frequency:    9.7292906167

- q-position: [    0.5000000,    0.1050000,    0.6050000 ]
  distance:    0.2342374
  band:
  - # 1
    frequency:   -3.1374702853
  - # 2
    frequency:   -2.4026512520
  - # 3
    frequency:   -0.4816148791
  - # 4
    frequency:    8.9624670556
  - # 5
    frequency:    9.1806730209
  - # 6
    frequency:    9.7178694319

- q-position: [    0.5000000,    0.1100000,    0.6100000 ]
  distance:    0.2361732
  band:
  - # 1
    frequency:   -3.1320391415
  - # 2
    frequency:   -2.4267098931
  - # 3
    frequency:    0.2317244597
  - # 4
    frequency:    8.9720065167
  - # 5
    frequency:    9.2094085802
  - # 6
    frequency:    9.7060935974

- q-position: [    0.5000000,    0.1150000,    0.6150000 ]
  distance:    0.2381091
  band:
  - # 1
    frequency:   -3.1265244845
  - # 2
    frequency:   -2.4508464655
  - # 3
    frequency:    0.5790843503
  - # 4
    frequency:    8.9818435634
  - # 5
    frequency:    9.2388030636
  - # 6
    frequency:    9.6939869095

- q-position: [    0.5000000,    0.1200000,    0.6200000 ]
  distance:    0.2400449
  band:
  - # 1
    frequency:   -3.1209384047
  - # 2
    frequency:   -2.4749763359
  - # 3
    frequency:    0.7821204095
  - # 4
    frequency:    8.9919629611
  - # 5
    frequency:    9.2687428811
  - # 6
    frequency:    9.6815731907

- q-position: [    0.5000000,    0.1250000,    0.6250000 ]
  distance:    0.2419808
  band:
  - # 1
    frequency:   -3.1152914206
  - # 2
    frequency:   -2.4990193903
  - # 3
    frequency:    0.9389725260
  - # 4
    frequency:    9.0023497300
  - # 5
    frequency:    9.2991082507
  - # 6
    frequency:    9.6688761774

- q-position: [    0.5000000,    0.1300000,    0.6300000 ]
  distance:    0.2439166
  band:
  - # 1
    frequency:   -3.1095923044
  - # 2
    frequency:   -2.5229002858
  - # 3
    frequency:    1.0696637155
  - # 4
    frequency:    9.0129892287
  - # 5
    frequency:    9.3297738414
  - # 6
    frequency:    9.6559194104

- q-position: [    0.5000000,    0.1350000,    0.6350000 ]
  distance:    0.2458525
  band:
  - # 1
    frequency:   -3.1038479210
  - # 2
    frequency:   -2.5465486512
  - # 3
    frequency:    1.1825126722
  - # 4
    frequency:    9.0238672322
  - # 5
    frequency:    9.3606095086
  - # 6
    frequency:    9.6427261276

- q-position: [    0.5000000,    0.1400000,    0.6400000 ]
  distance:    0.2477883
  band:
  - # 1
    frequency:   -3.0980630829
  - # 2
    frequency:   -2.5698992428
  - # 3
    frequency:    1.2819310585
  - # 4
    frequency:    9.0349700050
  - # 5
    frequency:    9.3914811113
  - # 6
    frequency:    9.6293191618

- q-position: [    0.5000000,    0.1450000,    0.6450000 ]
  distance:    0.2497242
  band:
  - # 1
    frequency:   -3.0922404225
  - # 2
    frequency:   -2.5928920572
  - # 3
    frequency:    1.3705990504
  - # 4
    frequency:    9.0462843663
  - # 5
    frequency:    9.4222513946
  - # 6
    frequency:    9.6157208426

- q-position: [    0.5000000,    0.1500000,    0.6500000 ]
  distance:    0.2516600
  band:
  - # 1
    frequency:   -3.0863802839
  - # 2
    frequency:   -2.6154724057
  - # 3
    frequency:    1.4502971239
  - # 4
    frequency:    9.0577977478
  - # 5
    frequency:    9.4527809221
  - # 6
    frequency:    9.6019529047

- q-position: [    0.5000000,    0.1550000,    0.6550000 ]
  distance:    0.2535959
  band:
  - # 1
    frequency:   -3.0804806370
  - # 2
    frequency:   -2.6375909532
  - # 3
    frequency:    1.5222869184
  - # 4
    frequency:    9.0694982427
  - # 5
    frequency:    9.4829290426
  - # 6
    frequency:    9.5880364017

- q-position: [    0.5000000,    0.1600000,    0.6600000 ]
  distance:    0.2555317
  band:
  - # 1
    frequency:   -3.0745370136
  - # 2
    frequency:   -2.6592037254
  - # 3
    frequency:    1.5875076909
  - # 4
    frequency:    9.0813746458
  - # 5
    frequency:    9.5125548746
  - # 6
    frequency:    9.5739916284

- q-position: [    0.5000000,    0.1650000,    0.6650000 ]
  distance:    0.2574675
  band:
  - # 1
    frequency:   -3.0685424685
  - # 2
    frequency:   -2.6802720846
  - # 3
    frequency:    1.6466866215
  - # 4
    frequency:    9.0934164841
  - # 5
    frequency:    9.5415182936
  - # 6
    frequency:    9.5598380494

- q-position: [    0.5000000,    0.1700000,    0.6700000 ]
  distance:    0.2594034
  band:
  - # 1
    frequency:   -3.0624875658
  - # 2
    frequency:   -2.7007626788
  - # 3
    frequency:    1.7004047903
  - # 4
    frequency:    9.1056140365
  - # 5
    frequency:    9.5455942374
  - # 6
    frequency:    9.5696809090

- q-position: [    0.5000000,    0.1750000,    0.6750000 ]
  distance:    0.2613392
  band:
  - # 1
    frequency:   -3.0563603918
  - # 2
    frequency:   -2.7206473644
  - # 3
    frequency:    1.7491386003
  - # 4
    frequency:    9.1179583437
  - # 5
    frequency:    9.5312778202
  - # 6
    frequency:    9.5969070169

- q-position: [    0.5000000,    0.1800000,    0.6800000 ]
  distance:    0.2632751
  band:
  - # 1
    frequency:   -3.0501465944
  - # 2
    frequency:   -2.7399031042
  - # 3
    frequency:    1.7932867893
  - # 4
    frequency:    9.1304412078
  - # 5
    frequency:    9.5169054371
  - # 6
    frequency:    9.6230645189

- q-position: [    0.5000000,    0.1850000,    0.6850000 ]
  distance:    0.2652109
  band:
  - # 1
    frequency:   -3.0438294499
  - # 2
    frequency:   -2.7585118431
  - # 3
    frequency:    1.8331885791
  - # 4