54   
2    

1    
  0.0000000000000000   0.0070710678118655   0.0070710678118655
   0.0000001028   -0.0731979462   -0.0731981040
   0.0000000374    0.0032735447    0.0032743442
  -0.0000000686    0.0032008018    0.0032014367
   0.0015902446   -0.0001632391    0.0016722916
  -0.0000079981    0.0002404639    0.0002471125
  -0.0015854443    0.0016617859   -0.0001620632
   0.0015855431   -0.0001625245    0.0016618876
  -0.0015902130    0.0016720284   -0.0001627666
   0.0000106589    0.0002485483    0.0002385939
   0.0015896343    0.0016719253   -0.0001627026
  -0.0000105839    0.0002484967    0.0002386445
  -0.0015855373   -0.0001625013    0.0016619578
  -0.0000125808    0.0002424821    0.0002437513
  -0.0000197263    0.0002377276    0.0002384572
   0.0000008728   -0.0002755828   -0.0002915054
  -0.0000000709    0.0000672452    0.0000867796
  -0.0000001348    0.0082485660   -0.0003001922
  -0.0000002144   -0.0002949934    0.0081667834
   0.0015853337    0.0016616920   -0.0001621051
  -0.0015904717   -0.0001633003    0.0016723236
   0.0000079509    0.0002407712    0.0002473693
   0.0000000783    0.0000872372    0.0000669370
   0.0000001032   -0.0002911246    0.0082442587
  -0.0000000011    0.0081976911   -0.0003005196
   0.0000197911    0.0002376563    0.0002383679
  -0.0000008104   -0.0002756114   -0.0002915738
   0.0000125871    0.0002424961    0.0002437688
   0.0007075527    0.0004706917    0.0004620874
   0.0000621040   -0.0023453633   -0.0023502236
  -0.0007325980    0.0004943150    0.0004855913
   0.0000016618    0.0264917163   -0.0022471527
   0.0000021787   -0.0024648535    0.0275556016
   0.0000005399   -0.0004368925   -0.0004035844
   0.0000046123   -0.0002326224   -0.0002514008
  -0.0001182513    0.0002213172   -0.0003424612
   0.0000890890   -0.0003784352    0.0001910470
   0.0000001123   -0.0022523822    0.0264700068
   0.0000003447    0.0275762520   -0.0024601367
  -0.0000004436   -0.0004301475   -0.0004090945
  -0.0000618246   -0.0023429991   -0.0023504651
   0.0007346794    0.0004977924    0.0004880439
  -0.0007055557    0.0004733451    0.0004620359
  -0.0001073270    0.0002067441   -0.0003466077
  -0.0000015147   -0.0002502731   -0.0002302008
   0.0001010606   -0.0003586514    0.0002054157
   0.0000007257   -0.0002535426   -0.0002313305
  -0.0000997353   -0.0003593783    0.0002077245
   0.0001070553    0.0002042939   -0.0003489361
  -0.0000894562   -0.0003765241    0.0001918323
  -0.0000057037   -0.0002294170   -0.0002509896
   0.0001175212    0.0002217141   -0.0003442264
  -0.0000021427   -0.0002853400   -0.0002685066
  -0.0000019433   -0.0002659730   -0.0002478861
  -0.0000018238   -0.0002897230   -0.0002497167

28   
  0.0000000000000000   0.0070710678118655   0.0070710678118655
   0.0007753711    0.0005275612    0.0005272796
  -0.0007557446    0.0004987009    0.0004987943
  -0.0002119066   -0.0023511422   -0.0023521525
  -0.0000033831   -0.0002491358   -0.0002561106
   0.0002945747   -0.0003392014    0.0002640407
  -0.0003070460    0.0002682163   -0.0003439626
  -0.0000000238    0.0274311350   -0.0023741927
  -0.0000002402   -0.0006591481   -0.0006231567
  -0.0000001009   -0.0023327926    0.0265447669
  -0.0000026484   -0.0002557167   -0.0002494517
   0.0002959031    0.0002673858   -0.0003398308
  -0.0003057868   -0.0003433356    0.0002650784
  -0.0000001023   -0.0000414063   -0.0000412868
  -0.0000002947   -0.0026433137   -0.0026382283
  -0.0000002059   -0.0000377497   -0.0000375827
  -0.0002946150   -0.0003393080    0.0002639554
   0.0003072569    0.0002681865   -0.0003438804
   0.0000032615   -0.0002491634   -0.0002559680
   0.0000000317   -0.0023739412    0.0274300629
  -0.0000001702   -0.0006230713   -0.0006593318
  -0.0000000385    0.0265458349   -0.0023330240
  -0.0002958710    0.0002673140   -0.0003398682
   0.0003058232   -0.0003432351    0.0002650009
   0.0000025964   -0.0002556747   -0.0002495320
   0.0002115882   -0.0023511778   -0.0023521308
  -0.0007754013    0.0005275563    0.0005273530
   0.0007556255    0.0004986127    0.0004986241
   0.0000001912   -0.0324470680   -0.0324471869
  -0.0000004708   -0.0034833601   -0.0035191121
  -0.0000005773   -0.0034380104   -0.0034744608
  -0.0014719241   -0.0009709268   -0.0019633135
  -0.0000191981    0.0012106412    0.0012425185
   0.0015002829   -0.0019884455   -0.0009851880
  -0.0015006534   -0.0009940257   -0.0020098720
   0.0014787771   -0.0019501473   -0.0009651762
  -0.0000294796    0.0012115235    0.0012348691
  -0.0014810741   -0.0019478295   -0.0009647641
   0.0000308206    0.0012164133    0.0012373923
   0.0014992122   -0.0009924418   -0.0020091101
  -0.0000119183    0.0012486400    0.0012313498
   0.0000304406    0.0012347016    0.0012181931
  -0.0000427941    0.0018874764    0.0018982808
  -0.0000009573   -0.0004434429   -0.0005153089
  -0.0000006033   -0.0033697766    0.0019208441
  -0.0000017185    0.0018939382   -0.0031648486
  -0.0015026745   -0.0019912090   -0.0009863668
   0.0014740650   -0.0009738565   -0.0019624663
   0.0000209872    0.0012056611    0.0012389291
   0.0000005173   -0.0005210604   -0.0004382334
   0.0000008366    0.0019239075   -0.0033489539
   0.0000000785   -0.0031851975    0.0018929504
  -0.0000292361    0.0012277843    0.0012157723
   0.0000440263    0.0018829084    0.0018990763
   0.0000145912    0.0012412124    0.0012289201
