phonopy:
  version: 2.15.0
  calculator: aims
  frequency_unit_conversion_factor: 15.633302
  symmetry_tolerance: 1.00000e-05
  configuration:
    atom_name: "Ba Zr S"
    dim: "3 3 3"
    mp: "40 40 40"
    tmax: "2000"
    tprop: ".true."

physical_unit:
  atomic_mass: "AMU"
  length: "angstrom"
  force_constants: "eV/angstrom^2"

space_group:
  type: "Fm-3m"
  number: 225
  Hall_symbol: "-F 4 2 3"

supercell_matrix:
- [   3,   0,   0 ]
- [   0,   3,   0 ]
- [   0,   0,   3 ]

primitive_cell:
  lattice:
  - [     0.000000000000000,     2.582849810000000,     2.582849810000000 ] # a
  - [     2.582849810000000,     0.000000000000000,     2.582849810000000 ] # b
  - [     2.582849810000000,     2.582849810000000,     0.000000000000000 ] # c
  points:
  - symbol: S  # 1
    coordinates: [  0.500000000000000,  0.500000000000000,  0.500000000000000 ]
    mass: 32.065000
  - symbol: Zr # 2
    coordinates: [  0.000000000000000,  0.000000000000000,  0.000000000000000 ]
    mass: 91.224000
  reciprocal_lattice: # without 2pi
  - [    -0.193584620392620,     0.193584620392620,     0.193584620392620 ] # a*
  - [     0.193584620392620,    -0.193584620392620,     0.193584620392620 ] # b*
  - [     0.193584620392620,     0.193584620392620,    -0.193584620392620 ] # c*

unit_cell:
  lattice:
  - [     0.000000000000000,     2.582849810000000,     2.582849810000000 ] # a
  - [     2.582849810000000,     0.000000000000000,     2.582849810000000 ] # b
  - [     2.582849810000000,     2.582849810000000,     0.000000000000000 ] # c
  points:
  - symbol: S  # 1
    coordinates: [  0.500000000000000,  0.500000000000000,  0.500000000000000 ]
    mass: 32.065000
    reduced_to: 1
  - symbol: Zr # 2
    coordinates: [  0.000000000000000,  0.000000000000000,  0.000000000000000 ]
    mass: 91.224000
    reduced_to: 2

supercell:
  lattice:
  - [     0.000000000000000,     7.748549430000000,     7.748549430000000 ] # a
  - [     7.748549430000000,     0.000000000000000,     7.748549430000000 ] # b
  - [     7.748549430000000,     7.748549430000000,     0.000000000000000 ] # c
  points:
  - symbol: S  # 1
    coordinates: [  0.166666666666667,  0.166666666666667,  0.166666666666667 ]
    mass: 32.065000
    reduced_to: 1
  - symbol: S  # 2
    coordinates: [  0.500000000000000,  0.166666666666667,  0.166666666666667 ]
    mass: 32.065000
    reduced_to: 1
  - symbol: S  # 3
    coordinates: [  0.833333333333333,  0.166666666666667,  0.166666666666667 ]
    mass: 32.065000
    reduced_to: 1
  - symbol: S  # 4
    coordinates: [  0.166666666666667,  0.500000000000000,  0.166666666666667 ]
    mass: 32.065000
    reduced_to: 1
  - symbol: S  # 5
    coordinates: [  0.500000000000000,  0.500000000000000,  0.166666666666667 ]
    mass: 32.065000
    reduced_to: 1
  - symbol: S  # 6
    coordinates: [  0.833333333333333,  0.500000000000000,  0.166666666666667 ]
    mass: 32.065000
    reduced_to: 1
  - symbol: S  # 7
    coordinates: [  0.166666666666667,  0.833333333333333,  0.166666666666667 ]
    mass: 32.065000
    reduced_to: 1
  - symbol: S  # 8
    coordinates: [  0.500000000000000,  0.833333333333333,  0.166666666666667 ]
    mass: 32.065000
    reduced_to: 1
  - symbol: S  # 9
    coordinates: [  0.833333333333333,  0.833333333333333,  0.166666666666667 ]
    mass: 32.065000
    reduced_to: 1
  - symbol: S  # 10
    coordinates: [  0.166666666666667,  0.166666666666667,  0.500000000000000 ]
    mass: 32.065000
    reduced_to: 1
  - symbol: S  # 11
    coordinates: [  0.500000000000000,  0.166666666666667,  0.500000000000000 ]
    mass: 32.065000
    reduced_to: 1
  - symbol: S  # 12
    coordinates: [  0.833333333333333,  0.166666666666667,  0.500000000000000 ]
    mass: 32.065000
    reduced_to: 1
  - symbol: S  # 13
    coordinates: [  0.166666666666667,  0.500000000000000,  0.500000000000000 ]
    mass: 32.065000
    reduced_to: 1
  - symbol: S  # 14
    coordinates: [  0.500000000000000,  0.500000000000000,  0.500000000000000 ]
    mass: 32.065000
    reduced_to: 1
  - symbol: S  # 15
    coordinates: [  0.833333333333333,  0.500000000000000,  0.500000000000000 ]
    mass: 32.065000
    reduced_to: 1
  - symbol: S  # 16
    coordinates: [  0.166666666666667,  0.833333333333333,  0.500000000000000 ]
    mass: 32.065000
    reduced_to: 1
  - symbol: S  # 17
    coordinates: [  0.500000000000000,  0.833333333333333,  0.500000000000000 ]
    mass: 32.065000
    reduced_to: 1
  - symbol: S  # 18
    coordinates: [  0.833333333333333,  0.833333333333333,  0.500000000000000 ]
    mass: 32.065000
    reduced_to: 1
  - symbol: S  # 19
    coordinates: [  0.166666666666667,  0.166666666666667,  0.833333333333333 ]
    mass: 32.065000
    reduced_to: 1
  - symbol: S  # 20
    coordinates: [  0.500000000000000,  0.166666666666667,  0.833333333333333 ]
    mass: 32.065000
    reduced_to: 1
  - symbol: S  # 21
    coordinates: [  0.833333333333333,  0.166666666666667,  0.833333333333333 ]
    mass: 32.065000
    reduced_to: 1
  - symbol: S  # 22
    coordinates: [  0.166666666666667,  0.500000000000000,  0.833333333333333 ]
    mass: 32.065000
    reduced_to: 1
  - symbol: S  # 23
    coordinates: [  0.500000000000000,  0.500000000000000,  0.833333333333333 ]
    mass: 32.065000
    reduced_to: 1
  - symbol: S  # 24
    coordinates: [  0.833333333333333,  0.500000000000000,  0.833333333333333 ]
    mass: 32.065000
    reduced_to: 1
  - symbol: S  # 25
    coordinates: [  0.166666666666667,  0.833333333333333,  0.833333333333333 ]
    mass: 32.065000
    reduced_to: 1
  - symbol: S  # 26
    coordinates: [  0.500000000000000,  0.833333333333333,  0.833333333333333 ]
    mass: 32.065000
    reduced_to: 1
  - symbol: S  # 27
    coordinates: [  0.833333333333333,  0.833333333333333,  0.833333333333333 ]
    mass: 32.065000
    reduced_to: 1
  - symbol: Zr # 28
    coordinates: [  0.000000000000000,  0.000000000000000,  0.000000000000000 ]
    mass: 91.224000
    reduced_to: 28
  - symbol: Zr # 29
    coordinates: [  0.333333333333333,  0.000000000000000,  0.000000000000000 ]
    mass: 91.224000
    reduced_to: 28
  - symbol: Zr # 30
    coordinates: [  0.666666666666667,  0.000000000000000,  0.000000000000000 ]
    mass: 91.224000
    reduced_to: 28
  - symbol: Zr # 31
    coordinates: [  0.000000000000000,  0.333333333333333,  0.000000000000000 ]
    mass: 91.224000
    reduced_to: 28
  - symbol: Zr # 32
    coordinates: [  0.333333333333333,  0.333333333333333,  0.000000000000000 ]
    mass: 91.224000
    reduced_to: 28
  - symbol: Zr # 33
    coordinates: [  0.666666666666667,  0.333333333333333,  0.000000000000000 ]
    mass: 91.224000
    reduced_to: 28
  - symbol: Zr # 34
    coordinates: [  0.000000000000000,  0.666666666666667,  0.000000000000000 ]
    mass: 91.224000
    reduced_to: 28
  - symbol: Zr # 35
    coordinates: [  0.333333333333333,  0.666666666666667,  0.000000000000000 ]
    mass: 91.224000
    reduced_to: 28
  - symbol: Zr # 36
    coordinates: [  0.666666666666667,  0.666666666666667,  0.000000000000000 ]
    mass: 91.224000
    reduced_to: 28
  - symbol: Zr # 37
    coordinates: [  0.000000000000000,  0.000000000000000,  0.333333333333333 ]
    mass: 91.224000
    reduced_to: 28
  - symbol: Zr # 38
    coordinates: [  0.333333333333333,  0.000000000000000,  0.333333333333333 ]
    mass: 91.224000
    reduced_to: 28
  - symbol: Zr # 39
    coordinates: [  0.666666666666667,  0.000000000000000,  0.333333333333333 ]
    mass: 91.224000
    reduced_to: 28
  - symbol: Zr # 40
    coordinates: [  0.000000000000000,  0.333333333333333,  0.333333333333333 ]
    mass: 91.224000
    reduced_to: 28
  - symbol: Zr # 41
    coordinates: [  0.333333333333333,  0.333333333333333,  0.333333333333333 ]
    mass: 91.224000
    reduced_to: 28
  - symbol: Zr # 42
    coordinates: [  0.666666666666667,  0.333333333333333,  0.333333333333333 ]
    mass: 91.224000
    reduced_to: 28
  - symbol: Zr # 43
    coordinates: [  0.000000000000000,  0.666666666666667,  0.333333333333333 ]
    mass: 91.224000
    reduced_to: 28
  - symbol: Zr # 44
    coordinates: [  0.333333333333333,  0.666666666666667,  0.333333333333333 ]
    mass: 91.224000
    reduced_to: 28
  - symbol: Zr # 45
    coordinates: [  0.666666666666667,  0.666666666666667,  0.333333333333333 ]
    mass: 91.224000
    reduced_to: 28
  - symbol: Zr # 46
    coordinates: [  0.000000000000000,  0.000000000000000,  0.666666666666667 ]
    mass: 91.224000
    reduced_to: 28
  - symbol: Zr # 47
    coordinates: [  0.333333333333333,  0.000000000000000,  0.666666666666667 ]
    mass: 91.224000
    reduced_to: 28
  - symbol: Zr # 48
    coordinates: [  0.666666666666667,  0.000000000000000,  0.666666666666667 ]
    mass: 91.224000
    reduced_to: 28
  - symbol: Zr # 49
    coordinates: [  0.000000000000000,  0.333333333333333,  0.666666666666667 ]
    mass: 91.224000
    reduced_to: 28
  - symbol: Zr # 50
    coordinates: [  0.333333333333333,  0.333333333333333,  0.666666666666667 ]
    mass: 91.224000
    reduced_to: 28
  - symbol: Zr # 51
    coordinates: [  0.666666666666667,  0.333333333333333,  0.666666666666667 ]
    mass: 91.224000
    reduced_to: 28
  - symbol: Zr # 52
    coordinates: [  0.000000000000000,  0.666666666666667,  0.666666666666667 ]
    mass: 91.224000
    reduced_to: 28
  - symbol: Zr # 53
    coordinates: [  0.333333333333333,  0.666666666666667,  0.666666666666667 ]
    mass: 91.224000
    reduced_to: 28
  - symbol: Zr # 54
    coordinates: [  0.666666666666667,  0.666666666666667,  0.666666666666667 ]
    mass: 91.224000
    reduced_to: 28
