160  
17   

1    
  0.0058075850668165   0.0081407589137433   0.0000000000000000
  -0.0220498704   -0.0290835013   -0.0041320762
   0.0011936592   -0.0007047914    0.0003087071
  -0.0001042073    0.0003425029    0.0001552232
   0.0001086545   -0.0001162940    0.0002155932
  -0.0000762396   -0.0006256833    0.0001965413
   0.0000842338   -0.0003997770    0.0001862348
   0.0000247704   -0.0000750607    0.0002156664
   0.0000054958   -0.0001368934    0.0001779720
  -0.0003420345    0.0004469792   -0.0000262672
   0.0003987711    0.0005446653   -0.0002325022
   0.0004495551    0.0008351896    0.0009650985
  -0.0001721975    0.0001857566    0.0002265430
  -0.0002186045    0.0003578775    0.0002779283
   0.0003709790    0.0005580742    0.0005909496
   0.0003261944    0.0009217689   -0.0004770398
  -0.0001463440    0.0001545133    0.0001779039
   0.0002477858    0.0001710514   -0.0001394142
  -0.0003012554    0.0023525294   -0.0005150658
   0.0003453373    0.0002409912   -0.0001522422
  -0.0011025755    0.0017590371   -0.0005041348
   0.0000003583    0.0000842715   -0.0001812715
   0.0000041191    0.0002410988   -0.0001131433
   0.0000286473    0.0001236261   -0.0002139842
  -0.0001392673    0.0001392740   -0.0001489660
   0.0008171430   -0.0016711003   -0.0013735425
   0.0008244334   -0.0016748984    0.0009976271
   0.0000151300   -0.0000043783   -0.0002429248
   0.0000223088   -0.0000221408   -0.0001335717
   0.0003181101   -0.0008391502    0.0010146868
   0.0003167489   -0.0008389711   -0.0011598442
   0.0000100819   -0.0000499235   -0.0001284927
   0.0000174642   -0.0000501801   -0.0002501482
  -0.0003728191    0.0007601141    0.0001045446
   0.0004927348    0.0035291574   -0.0009984140
  -0.0001559255   -0.0014561890    0.0000736489
  -0.0000407013   -0.0007471932    0.0000662988
  -0.0003499311    0.0007977410    0.0001335166
   0.0005669302    0.0029737547   -0.0003332445
  -0.0001471153   -0.0014970505    0.0000836815
  -0.0000380705   -0.0007577127    0.0000628641
   0.0001849044   -0.0001772879    0.0001275727
   0.0000200428   -0.0002475943    0.0001067932
   0.0000609381   -0.0001792464   -0.0000719554
   0.0001408170   -0.0000553131    0.0000647931
   0.0003100067   -0.0001118350    0.0000913752
  -0.0003633338   -0.0016423609    0.0001120717
  -0.0003972811   -0.0018793631    0.0001740179
   0.0002988788    0.0000423207    0.0000422674
   0.0005116720   -0.0011854837   -0.0004769517
  -0.0000648414   -0.0001330835   -0.0000960215
   0.0004875431   -0.0008332041    0.0002614321
  -0.0000406676   -0.0002182600    0.0000390738
   0.0002064143   -0.0006381389    0.0001021792
  -0.0001194499   -0.0000821606   -0.0000332004
   0.0005075057   -0.0008031119   -0.0005505357
  -0.0000411761   -0.0001982721   -0.0000985917
   0.0063718143    0.0045166695    0.0013026495
  -0.0020944188    0.0025739151   -0.0002661300
  -0.0000842685   -0.0008056669   -0.0000796132
  -0.0001180749   -0.0007377440   -0.0000437427
  -0.0000315110    0.0008889242    0.0000298418
  -0.0001303924    0.0007161027   -0.0001919903
  -0.0000850221   -0.0015340447   -0.0000673468
  -0.0000837160   -0.0014475886   -0.0000791890
  -0.0017428913    0.0001978551    0.0005378326
  -0.0000231176    0.0028877737   -0.0024292893
  -0.0001318123   -0.0000210677   -0.0003456325
  -0.0000480976   -0.0003260639   -0.0004204260
  -0.0003291533    0.0002084784   -0.0004329285
   0.0002003453    0.0005201543   -0.0007004421
  -0.0001193260    0.0000528796   -0.0003268567
  -0.0001623257   -0.0000499456   -0.0003107878
   0.0001483099   -0.0001549230   -0.0003568224
   0.0002045457   -0.0003689694   -0.0002259683
  -0.0013564348   -0.0001851594   -0.0014483231
   0.0012186842    0.0001400422   -0.0004487764
   0.0001633647   -0.0001120047   -0.0003625442
   0.0000677329   -0.0002037590   -0.0004410829
  -0.0000629357    0.0000850163   -0.0002444888
   0.0006888496    0.0000602408    0.0001426902
   0.0014468248    0.0025152407   -0.0002449479
  -0.0010807023   -0.0000043142    0.0011797351
   0.0002067589   -0.0003337646    0.0002389212
   0.0000369452   -0.0000233147    0.0003632430
   0.0007837689    0.0000569470   -0.0005142581
  -0.0000874309    0.0001552125    0.0002471710
   0.0001160170   -0.0000736179    0.0004166045
   0.0000977411    0.0000284097    0.0003990392
   0.0021332509    0.0010642604    0.0014037625
  -0.0016309994    0.0000755439   -0.0006439176
  -0.0000104607   -0.0003691359    0.0004534473
  -0.0001742500   -0.0001080183    0.0003063789
   0.0004711430    0.0002886717    0.0009072527
  -0.0003190958    0.0001053125    0.0003484412
  -0.0001423017   -0.0001958867    0.0002828043
  -0.0001326643   -0.0000787219    0.0003251434
   0.0003317570   -0.0003780070    0.0003645441
  -0.0001276326   -0.0002718802    0.0005350932
   0.0015803423    0.0014167922   -0.0012627961
  -0.0001473178    0.0003497376    0.0005205380
   0.0002747397   -0.0002548976    0.0001779270
   0.0000578949   -0.0001084271    0.0003357683
   0.0001375548    0.0001038456    0.0011376637
   0.0000002561    0.0000317530    0.0005206205
   0.0022833800    0.0015250419    0.0003634849
  -0.0000868749    0.0004960070    0.0002908661
   0.0000148209   -0.0001354868    0.0004357579
  -0.0002882677   -0.0000850102    0.0002143145
  -0.0002053764    0.0005050591   -0.0002799289
  -0.0002878601    0.0002826275    0.0002825150
  -0.0000467307   -0.0000697507    0.0003784270
  -0.0002010233    0.0000163002    0.0003821365
  -0.0003993850    0.0005617302    0.0000462219
   0.0071245307    0.0090696308    0.0049255135
  -0.0003455049   -0.0002552940   -0.0001877794
  -0.0000030005   -0.0002904746   -0.0003736668
  -0.0001341289    0.0001684945   -0.0003218523
  -0.0001284418    0.0003752037   -0.0001314139
  -0.0001556531   -0.0000394431   -0.0003617150
   0.0000353447   -0.0002265491   -0.0004626311
   0.0001369945    0.0007160183   -0.0004560293
  -0.0006317296   -0.0010436251    0.0013251231
  -0.0001569051   -0.0001993484   -0.0005298454
   0.0002805437   -0.0001244939   -0.0002921963
   0.0001416418    0.0002259003   -0.0003724298
  -0.0004237641    0.0000499202   -0.0015266729
  -0.0000038268   -0.0000579055   -0.0002712048
   0.0002712885   -0.0000799891   -0.0002395359
   0.0010753389   -0.0004944093    0.0004428603
  -0.0030648466   -0.0026137238    0.0046764543
   0.0001717111    0.0008816857   -0.0000800694
  -0.0001092445    0.0010037997   -0.0000754569
   0.0008276720   -0.0003203059   -0.0008524547
  -0.0038702088    0.0000646180   -0.0042530538
   0.0001577719    0.0008837764    0.0001453700
  -0.0000841137    0.0012574337    0.0002983827
   0.0101131191    0.0052284413    0.0004741814
  -0.0017332451   -0.0029022780    0.0011020791
  -0.0002207299    0.0007658144   -0.0000694382
   0.0001806354    0.0014717351   -0.0001539744
   0.0006050342   -0.0004884958    0.0000429141
  -0.0002261385   -0.0005127642   -0.0001126922
  -0.0001464479    0.0009640294   -0.0000776551
   0.0001103235    0.0009804521   -0.0000635687
   0.0008159137   -0.0005401496   -0.0004765248
  -0.0006491097   -0.0009186945   -0.0038665695
   0.0002147976    0.0009506042    0.0000339695
  -0.0002286960    0.0012069286    0.0000737732
   0.0009490106   -0.0003384534    0.0004715347
  -0.0030133996    0.0012500435    0.0067788528
   0.0001609220    0.0009484683   -0.0002132663
  -0.0001663945    0.0010548881   -0.0002617605
  -0.0036291859   -0.0052280421   -0.0012332246
   0.0059557311    0.0016814953   -0.0014790924
   0.0001675711    0.0016790812    0.0001674631
  -0.0001554997    0.0005524817    0.0000023405
  -0.0007088077   -0.0005856881   -0.0000220432
   0.0005899103   -0.0003876838    0.0004189742
   0.0000537537    0.0009923975    0.0001058194
  -0.0001499688    0.0008084056    0.0000603451

1    
 -0.0058075850668165  -0.0081407589137433   0.0000000000000000
   0.0222780597    0.0290513595    0.0041753111
  -0.0011580332    0.0007050234    0.0000675721
   0.0001087486   -0.0003448329    0.0002214790
  -0.0000797933    0.0001120978    0.0001610883
   0.0000827654    0.0006265271    0.0001936113
  -0.0000556353    0.0004004091    0.0001985578
  -0.0000202257    0.0000711791    0.0001696930
   0.0000234441    0.0001303461    0.0002068513
   0.0003026307   -0.0004559385    0.0004047904
  -0.0004177791   -0.0005487252    0.0006067651
  -0.0004914688   -0.0008354564   -0.0005882155
   0.0001489154   -0.0001844451    0.0001507441
   0.0001785405   -0.0003678608    0.0000955002
  -0.0003941170   -0.0005671859   -0.0002154318
  -0.0003668050   -0.0009211863    0.0008523334
   0.0001212019   -0.0001515385    0.0001961727
  -0.0002713756   -0.0001773934   -0.0002444128
   0.0002488689   -0.0023314502    0.0001267205
  -0.0003712840   -0.0002399088   -0.0002320746
   0.0010638055   -0.0017724450    0.0001222548
  -0.0000255852   -0.0000921207   -0.0001946870
  -0.0000529275   -0.0002488241   -0.0002619878
  -0.0000548508   -0.0001228889   -0.0001617404
   0.0000920199   -0.0001374996   -0.0002270065
  -0.0007940049    0.0016775106    0.0009958517
  -0.0007805758    0.0016654596   -0.0013725865
   0.0000119099    0.0000020927   -0.0001397592
   0.0000194028   -0.0000046612   -0.0002492793
  -0.0002907585    0.0008421232   -0.0013908515
  -0.0002823581    0.0008343029    0.0007811713
   0.0000169184    0.0000479183   -0.0002475978
   0.0000240561    0.0000680459   -0.0001259872
   0.0001832626   -0.0007574684    0.0000348021
  -0.0006894779   -0.0035416576    0.0011538536
  -0.0000338010    0.0014493058    0.0000655251
  -0.0001488028    0.0007464119    0.0000730324
   0.0001606277   -0.0007955150    0.0000056934
  -0.0007549215   -0.0029645198    0.0004711974
  -0.0000425437    0.0014946869    0.0000554112
  -0.0001514342    0.0008174649    0.0000762044
   0.0000074081    0.0001787604    0.0000109008
   0.0001726971    0.0002496631    0.0000327774
   0.0001314097    0.0001800614    0.0002104664
   0.0000526152    0.0000552956    0.0000742129
  -0.0001182726    0.0001166758    0.0000482009
   0.0005532738    0.0016393906    0.0000241850
   0.0005942597    0.0018850039   -0.0000336611
  -0.0001051997   -0.0000476856    0.0000952172
  -0.0003161497    0.0011829763    0.0003345417
   0.0002567760    0.0001329796   -0.0000428294
  -0.0002982886    0.0008332021   -0.0004017138
   0.0002333653    0.0002190402   -0.0001781292
  -0.0000111505    0.0006414093   -0.0002409977
   0.0003110146    0.0000826414   -0.0001047453
  -0.0003163754    0.0008026138    0.0004148129
   0.0002341021    0.0001995967   -0.0000395699
  -0.0067633388   -0.0045308204   -0.0014667401
   0.0019025801   -0.0025477935    0.0001310285
  -0.0001052107    0.0008068302   -0.0000591780
  -0.0000714316    0.0007355929   -0.0000948180
  -0.0001587871   -0.0008877455   -0.0001697179
  -0.0000583142   -0.0007126429    0.0000515415
  -0.0001045610    0.0015332211   -0.0000712251
  -0.0001058245    0.0014390508   -0.0000593438
   0.0015044075   -0.0000762804   -0.0012317879
  -0.0002152125   -0.0027678033    0.0017476044
  -0.0001115751    0.0001413811   -0.0003485384
  -0.0001965281    0.0004412461   -0.0002801210
   0.0000866413   -0.0000878082   -0.0002608380
  -0.0004400271   -0.0004033607    0.0000029745
  -0.0001237730    0.0000679094   -0.0003671353
  -0.0000800733    0.0001706456   -0.0003844972
   0.0000963823    0.0000370929   -0.0003380840
   0.0000421725    0.0002492619   -0.0004675420
   0.0016085706    0.0000662667    0.0007551022
  -0.0009729472   -0.0002631428   -0.0002461939
   0.0000815241   -0.0000058460   -0.0003315548
   0.0001793805    0.0000752247   -0.0002482162
   0.0003093755   -0.0002024387   -0.0004503650
  -0.0004419173   -0.0001785211   -0.0008335583
  -0.0012294527   -0.0023385322    0.0009077821
   0.0013205497    0.0001266839   -0.0004803487
   0.0000387690    0.0004549058    0.0004570440
   0.0002100887    0.0001430987    0.0003310884
  -0.0005345155    0.0000636862    0.0012065055
   0.0003338759   -0.0000347442    0.0004473367
   0.0001291888    0.0001934064    0.0002789955
   0.0001489629    0.0000921259    0.0002957900
  -0.0023640850   -0.0011740024   -0.0007039909
   0.0013817162   -0.0001948188    0.0013341303
  -0.0002330092    0.0002507802    0.0002409352
  -0.0000678261   -0.0000104129    0.0003888648
  -0.0007162644   -0.0004043067   -0.0002130973
   0.0000762374   -0.0002225838    0.0003471198
  -0.0001005988    0.0000771006    0.0004123497
  -0.0001129049   -0.0000466943    0.0003704878
  -0.0000841114    0.0002585800    0.0003309698
   0.0003725541    0.0001526982    0.0001602810
  -0.0014246251   -0.0016934526    0.0018848479
   0.0003947747   -0.0004664142    0.0001742285
  -0.0000274560    0.0001360232    0.0005158595
   0.0001872896   -0.0000093955    0.0003593295
   0.0001057860   -0.0002197949   -0.0004448426
   0.0002474574   -0.0001500835    0.0001741071
  -0.0026455018   -0.0015462211    0.0004332944
  -0.0001536396   -0.0003732560    0.0004053505
  -0.0002562834    0.0002563082    0.0002599800
   0.0000445027    0.0002049753    0.0004801999
  -0.0000408925   -0.0003875017    0.0009767984
   0.0000463665   -0.0001619201    0.0004134943
  -0.0001955839    0.0001898835    0.0003167249
  -0.0000393148    0.0000964880    0.0003130004
   0.0001558541   -0.0006810868   -0.0007380892
  -0.0070449179   -0.0088194924   -0.0053565983
   0.0001034116    0.0001373583   -0.0005071933
  -0.0002387711    0.0001665034   -0.0003146483
  -0.0001094338   -0.0002866985   -0.0003717910
  -0.0001103959   -0.0004899499   -0.0005629784
  -0.0000871487   -0.0000783390   -0.0003326042
  -0.0002785157    0.0001085195   -0.0002306581
   0.0001093831   -0.0005975162   -0.0002394594
   0.0008663705    0.0011473772   -0.0019940267
   0.0004019233    0.0003183342   -0.0001641832
  -0.0000353662    0.0002444791   -0.0004023590
   0.0001035463   -0.0001063462   -0.0003232308
   0.0006695964    0.0000691532    0.0008293295
   0.0002489982    0.0001776572   -0.0004230669
  -0.0000271986    0.0001901456   -0.0004599773
  -0.0010751637    0.0004925532   -0.0004443904
   0.0030816137    0.0026518038   -0.0046997155
  -0.0001671539   -0.0008844460    0.0000813412
   0.0001025785   -0.0010104768    0.0000777334
  -0.0008280748    0.0003190961    0.0008523613
   0.0039037254   -0.0000620498    0.0042484465
  -0.0001553210   -0.0008890552   -0.0001449696
   0.0000574190   -0.0012658752   -0.0002963652
  -0.0102659124   -0.0053099240   -0.0004811407
   0.0017071929    0.0028950019   -0.0010899027
   0.0002202104   -0.0007753280    0.0000703811
  -0.0001766750   -0.0014748564    0.0001528630
  -0.0006054830    0.0004886017   -0.0000394822
   0.0002223621    0.0005133568    0.0001145664
   0.0001456710   -0.0009700867    0.0000792926
  -0.0001093471   -0.0009824092    0.0000609044
  -0.0008120509    0.0005380363    0.0004741122
   0.0006225409    0.0008940224    0.0038396832
  -0.0002154193   -0.0009467876   -0.0000337563
   0.0002246354   -0.0012054990   -0.0000716158
  -0.0009439773    0.0003399566   -0.0004695441
   0.0029765685   -0.0012419848   -0.0067397422
  -0.0001597615   -0.0009463548    0.0002134011
   0.0001821282   -0.0010572505    0.0002638893
   0.0036517565    0.0052169564    0.0012380881
  -0.0059156749   -0.0016748245    0.0014847733
  -0.0001673413   -0.0016800958   -0.0001675419
   0.0001564427   -0.0005462028   -0.0000008986
   0.0007108888    0.0005880110    0.0000260363
  -0.0005883372    0.0003849747   -0.0004160339
  -0.0000531293   -0.0009898490   -0.0001043874
   0.0001540817   -0.0008016093   -0.0000545033

1    
  0.0000000000000000   0.0000000000000000   0.0100000000000000
  -0.0072416591    0.0000011458   -0.0345217291
   0.0002243219    0.0000005876    0.0000640917
  -0.0000545269   -0.0000017630   -0.0000254324
   0.0000612508   -0.0000016580    0.0002369482
   0.0000062090    0.0000006862    0.0025131857
   0.0000039834    0.0000006427    0.0002999075
   0.0000418562   -0.0000013226    0.0003730292
  -0.0000101511   -0.0000016612    0.0001667450
   0.0004732663   -0.0004604786    0.0005189780
  -0.0003481677   -0.0002526254    0.0002699252
   0.0004732490    0.0004573001    0.0005191577
  -0.0003481798    0.0002491813    0.0002699093
  -0.0005025177    0.0005999281    0.0005179290
   0.0003179910    0.0002731081    0.0002677036
  -0.0005026060   -0.0006034623    0.0005180697
   0.0003180624   -0.0002761777    0.0002680039
   0.0000668613    0.0000053125   -0.0001994272
  -0.0005702577   -0.0000044505   -0.0014462121
   0.0000668455   -0.0000085811   -0.0001992821
  -0.0005701267    0.0000006609   -0.0014464016
  -0.0000295195    0.0000152842   -0.0001431953
   0.0000736783    0.0000188578    0.0003847501
  -0.0000299240   -0.0000184289   -0.0001433592
   0.0000736902   -0.0000223671    0.0003846729
  -0.0020359364    0.0000008269    0.0008285766
   0.0020674095    0.0000008146    0.0008282782
  -0.0000857690   -0.0000013016   -0.0001851500
   0.0001101380   -0.0000015227   -0.0001852917
   0.0016806986    0.0000009401    0.0005521340
  -0.0020372437    0.0000012442    0.0005488248
   0.0001206685   -0.0000013277   -0.0001990588
  -0.0000808973   -0.0000013975   -0.0001989315
  -0.0002037266    0.0000006188    0.0001109782
  -0.0015062258    0.0000006754    0.0134795657
  -0.0001148362    0.0000005828    0.0000870660
  -0.0000609959    0.0000005504    0.0000849327
   0.0000138589    0.0000005733    0.0000787754
  -0.0005184764    0.0000006432   -0.0036954792
  -0.0000927894    0.0000005509    0.0000942045
  -0.0001017839    0.0000005289    0.0000149984
   0.0000617679    0.0000421099   -0.0002616188
   0.0001441195    0.0000776878   -0.0001975249
   0.0000617697   -0.0000410840   -0.0002616213
   0.0001441200   -0.0000766656   -0.0001975265
  -0.0000035995    0.0000575777    0.0007660052
  -0.0000082002   -0.0005094294    0.0005091078
  -0.0000036010   -0.0000565608    0.0007660057
  -0.0000081986    0.0005104490    0.0005091073
   0.0000658033   -0.0015442969   -0.0001511946
   0.0000407527   -0.0000649046   -0.0000441327
   0.0000658021    0.0015453126   -0.0001511950
   0.0000407525    0.0000659174   -0.0000441327
   0.0001416755    0.0014531454   -0.0004303741
   0.0001294599    0.0000472998   -0.0000478853
   0.0001416720   -0.0014521286   -0.0004303763
   0.0001294603   -0.0000462772   -0.0000478873
   0.0016988205    0.0000006502    0.0017614388
   0.0000792217    0.0000006079    0.0011235603
  -0.0000937657    0.0000005203    0.0000323102
  -0.0001078004    0.0000005260    0.0000272573
  -0.0000845825    0.0000006644   -0.0006095392
  -0.0000836666    0.0000006670   -0.0006048185
  -0.0001025664    0.0000006645   -0.0001674125
  -0.0000819036    0.0000006171   -0.0001738528
  -0.0001884652   -0.0000755743    0.0002202714
   0.0018251275   -0.0037359976    0.0038850251
  -0.0002187376    0.0001224959   -0.0002689736
  -0.0001898171   -0.0000560208   -0.0001840436
  -0.0001486540    0.0000393614   -0.0005154276
   0.0009394807   -0.0003750834   -0.0019832421
  -0.0001193288    0.0000440163   -0.0003591485
   0.0000558738    0.0001615985   -0.0005539154
   0.0000994241   -0.0000596185   -0.0002372566
   0.0003180936    0.0000316223   -0.0001192382
  -0.0001110090   -0.0000278256   -0.0001105342
   0.0019097756   -0.0011129790    0.0008314016
   0.0001794651   -0.0001205029   -0.0004419535
  -0.0000766200   -0.0001681568   -0.0005864171
   0.0001349504   -0.0000342515   -0.0006164946
  -0.0009037449    0.0004241177   -0.0015238159
  -0.0015961496    0.0006998156    0.0023031497
  -0.0002073537   -0.0000787849    0.0007723638
   0.0000408005   -0.0000667731    0.0005318620
   0.0000417194    0.0001020852    0.0004625870
   0.0009881767   -0.0002804680   -0.0008525933
   0.0001877616    0.0000819758    0.0001352571
   0.0002621201    0.0001634457    0.0001080729
   0.0001430610    0.0000589377    0.0002994443
   0.0004368417    0.0000936347    0.0038960415
  -0.0005408067   -0.0001024662    0.0004792447
   0.0000488269    0.0000891592    0.0005387703
  -0.0001375990   -0.0000475929    0.0003709790
  -0.0012940014    0.0003287034   -0.0011490703
  -0.0000007230    0.0000591580    0.0001250580
  -0.0002849998   -0.0001692295    0.0001505307
  -0.0001038742   -0.0000684648    0.0003080841
   0.0000407987    0.0000677677    0.0005318623
   0.0000417187   -0.0001010799    0.0004625889
  -0.0015961473   -0.0006988185    0.0023031503
  -0.0002073540    0.0000797707    0.0007723624
   0.0002621247   -0.0001624434    0.0001080742
   0.0001430600   -0.0000579406    0.0002994403
   0.0009881787    0.0002814543   -0.0008525954
   0.0001877627   -0.0000809863    0.0001352550
   0.0004368393   -0.0000926314    0.0038960404
  -0.0005408107    0.0001034542    0.0004792542
   0.0000488253   -0.0000881755    0.0005387712
  -0.0001375957    0.0000485859    0.0003709767
  -0.0012940009   -0.0003277098   -0.0011490649
  -0.0000007251   -0.0000581560    0.0001250657
  -0.0002850041    0.0001702317    0.0001505359
  -0.0001038741    0.0000694597    0.0003080847
  -0.0001884681    0.0000765586    0.0002202682
   0.0018251346    0.0037370010    0.0038850310
  -0.0002187358   -0.0001215026   -0.0002689692
  -0.0001898216    0.0000569975   -0.0001840446
  -0.0001486538   -0.0000383686   -0.0005154257
   0.0009394795    0.0003760826   -0.0019832439
  -0.0001193269   -0.0000430249   -0.0003591487
   0.0000558813   -0.0001605999   -0.0005539155
  -0.0001110078    0.0000288077   -0.0001105357
   0.0019097764    0.0011139726    0.0008313985
   0.0000994187    0.0000606279   -0.0002372606
   0.0003180939   -0.0000306195   -0.0001192419
   0.0001349528    0.0000352466   -0.0006164960
  -0.0009037494   -0.0004231231   -0.0015238181
   0.0001794649    0.0001214966   -0.0004419519
  -0.0000766168    0.0001691555   -0.0005864199
   0.0001056512    0.0000650867   -0.0000755246
  -0.0004650537    0.0067602101    0.0043798178
   0.0000251380   -0.0000431917   -0.0000711512
  -0.0000704847   -0.0007837661   -0.0000830658
   0.0001387153   -0.0002040765    0.0001559606
   0.0009685706   -0.0060466957    0.0044703882
   0.0000228047    0.0000684098   -0.0000629877
  -0.0000228249    0.0008252805    0.0001303901
   0.0006467031    0.0002283873   -0.0059686872
   0.0017552282   -0.0004983008   -0.0037715456
   0.0000636280   -0.0001275479   -0.0002414929
  -0.0000208836    0.0002115514   -0.0002925882
  -0.0000299217    0.0001235363    0.0016579121
  -0.0003211925    0.0001570431    0.0015545901
  -0.0000111266   -0.0000103576    0.0003088436
  -0.0000323084   -0.0000046968    0.0003100591
   0.0001057325   -0.0000641598   -0.0000755150
  -0.0004650913   -0.0067593643    0.0043798294
   0.0000251461    0.0000401069   -0.0000711502
  -0.0000704417    0.0007806953   -0.0000830282
   0.0001387604    0.0002050881    0.0001559706
   0.0009685181    0.0060475254    0.0044705132
   0.0000228087   -0.0000713993   -0.0000629876
  -0.0000228084   -0.0008282395    0.0001303956
   0.0006467629   -0.0002275996   -0.0059687049
   0.0017552811    0.0004992676   -0.0037716172
   0.0000636511    0.0001245524   -0.0002415141
  -0.0000208012   -0.0002145678   -0.0002925186
  -0.0000298167   -0.0001227406    0.0016579504
  -0.0003211756   -0.0001563088    0.0015545512
  -0.0000111493    0.0000071322    0.0003087622
  -0.0000322873    0.0000015229    0.0003100078

1    
  0.0000000000000000   0.0000000000000000  -0.0100000000000000
   0.0071005936    0.0000008505    0.0354539712
  -0.0001940344    0.0000008908    0.0003122689
   0.0000592946   -0.0000018840    0.0004030610
  -0.0000325805   -0.0000018439    0.0001396761
  -0.0000020552    0.0000008150   -0.0021174865
   0.0000250326    0.0000009888    0.0000850003
  -0.0000372252   -0.0000013466    0.0000119507
   0.0000391072   -0.0000016717    0.0002188347
  -0.0005151566    0.0004523886   -0.0001414422
   0.0003277615    0.0002456328    0.0001070686
  -0.0005151651   -0.0004557191   -0.0001411493
   0.0003278438   -0.0002488076    0.0001072203
   0.0004631284   -0.0006106230   -0.0001439422
  -0.0003410417   -0.0002826701    0.0001055370
   0.0004631112    0.0006070037   -0.0001438037
  -0.0003408126    0.0002796769    0.0001055875
  -0.0000928821   -0.0000146402   -0.0001848074
   0.0005226366   -0.0000068974    0.0010656347
  -0.0000928125    0.0000108120   -0.0001849129
   0.0005228694    0.0000033872    0.0010656719
   0.0000037740   -0.0000226560   -0.0002321934
  -0.0001223751   -0.0000262170   -0.0007611537
   0.0000036773    0.0000197364   -0.0002320708
  -0.0001222454    0.0000226225   -0.0007608928
   0.0020460145    0.0000007607   -0.0012050659
  -0.0020083890    0.0000008594   -0.0012088891
   0.0001128884   -0.0000016636   -0.0001975215
  -0.0000686496   -0.0000015110   -0.0001976672
  -0.0016717176    0.0000011899   -0.0009289447
   0.0020944455    0.0000011813   -0.0009307251
  -0.0000936456   -0.0000014987   -0.0001767907
   0.0001227606   -0.0000014936   -0.0001765330
   0.0000146594    0.0000012028    0.0000268658
   0.0014079189    0.0000010956   -0.0140478613
  -0.0000747033   -0.0000000054    0.0000522450
  -0.0001287089   -0.0000000275    0.0000545711
  -0.0002032115    0.0000009731    0.0000620058
   0.0003251171    0.0000008375    0.0038022527
  -0.0000968588   -0.0000001251    0.0000453866
  -0.0000878510   -0.0000000743    0.0001248660
   0.0001321098   -0.0000430035    0.0004013642
   0.0000478967   -0.0000775842    0.0003370045
   0.0001321116    0.0000440067    0.0004013616
   0.0000478952    0.0000785937    0.0003370048
   0.0002000721   -0.0000572398   -0.0006272724
   0.0002006879    0.0005149196   -0.0003725344
   0.0002000706    0.0000582423   -0.0006272732
   0.0002006910   -0.0005139154   -0.0003725352
   0.0001257013    0.0015444852    0.0000138299
   0.0001516370    0.0000672879   -0.0000936614
   0.0001257034   -0.0015434762    0.0000138303
   0.0001516367   -0.0000662829   -0.0000936597
   0.0000514246   -0.0014606079    0.0002924923
   0.0000627098   -0.0000453874   -0.0000910776
   0.0000514252    0.0014616134    0.0002924968
   0.0000627097    0.0000463981   -0.0000910756
  -0.0018696576    0.0000010095   -0.0018860160
  -0.0002575087    0.0000010971   -0.0012642912
  -0.0000955978    0.0000000041   -0.0001706733
  -0.0000819945   -0.0000000324   -0.0001657899
  -0.0001035329    0.0000009070    0.0004714871
  -0.0001064448    0.0000010061    0.0004651078
  -0.0000868316   -0.0000000710    0.0000295568
  -0.0001080727   -0.0000001374    0.0000359093
  -0.0000552126    0.0001950636   -0.0009111697
  -0.0020114884    0.0037785696   -0.0045548340
  -0.0000234754   -0.0000024203   -0.0004254176
  -0.0000535167    0.0001771326   -0.0005099869
  -0.0000930245    0.0000812467   -0.0001795424
  -0.0011833561    0.0004974629    0.0012916822
  -0.0001230412    0.0000762276   -0.0003351201
  -0.0002993045   -0.0000417394   -0.0001396714
   0.0001465311   -0.0000584718   -0.0004565977
  -0.0000731439   -0.0001502404   -0.0005757595
   0.0003545917   -0.0000922405   -0.0005875486
  -0.0016780191    0.0010045041   -0.0015349828
   0.0000659257    0.0000025068   -0.0002508019
   0.0003224598    0.0000496510   -0.0001070579
   0.0001128236   -0.0000830742   -0.0000755065
   0.0011467747   -0.0005382545    0.0008310398
   0.0018457360   -0.0005695216   -0.0016495466
   0.0004534750    0.0002012091   -0.0000783385
   0.0002056628    0.0001876275    0.0001630749
   0.0002044713    0.0000177349    0.0002320964
  -0.0007407315    0.0003967773    0.0015507988
   0.0000568376    0.0000384179    0.0005623986
  -0.0000163968   -0.0000433162    0.0005880840
   0.0001023006    0.0000613034    0.0003964569
  -0.0007253528   -0.0001292911   -0.0031229997
   0.0003010575   -0.0000165359    0.0002181413
  -0.0002914905   -0.0002078307    0.0001563087
  -0.0001052313   -0.0000707468    0.0003243102
   0.0010574760   -0.0004521152    0.0018502728
  -0.0002445813   -0.0001787527    0.0005699775
   0.0000429609    0.0000513179    0.0005453159
  -0.0001394745   -0.0000496918    0.0003870164
   0.0002056559   -0.0001865851    0.0001630748
   0.0002044641   -0.0000166903    0.0002320986
   0.0018457372    0.0005704574   -0.0016495421
   0.0004534735   -0.0002002786   -0.0000783323
  -0.0000163986    0.0000443750    0.0005880872
   0.0001022967   -0.0000602482    0.0003964591
  -0.0007407226   -0.0003958183    0.0015507922
   0.0000568468   -0.0000374656    0.0005623971
  -0.0007253429    0.0001302338   -0.0031229899
   0.0003010593    0.0000174889    0.0002181538
  -0.0002914848    0.0002088446    0.0001563037
  -0.0001052265    0.0000717659    0.0003243046
   0.0010574705    0.0004530785    0.0018502729
  -0.0002445929    0.0001797289    0.0005699778
   0.0000429543   -0.0000502652    0.0005453077
  -0.0001394778    0.0000507282    0.0003869998
  -0.0000552122   -0.0001941189   -0.0009111615
  -0.0020114740   -0.0037776236   -0.0045548333
  -0.0000234722    0.0000034378   -0.0004254306
  -0.0000535226   -0.0001761182   -0.0005100034
  -0.0000930322   -0.0000802747   -0.0001795231
  -0.0011833480   -0.0004964927    0.0012916917
  -0.0001230444   -0.0000751936   -0.0003351268
  -0.0002993000    0.0000427886   -0.0001396761
   0.0003545794    0.0000931723   -0.0005875566
  -0.0016780237   -0.0010035668   -0.0015349851
   0.0001465330    0.0000595297   -0.0004566014
  -0.0000731429    0.0001512898   -0.0005757602
   0.0001128237    0.0000840193   -0.0000755084
   0.0011467751    0.0005392129    0.0008310447
   0.0000659336   -0.0000014544   -0.0002508047
   0.0003224631   -0.0000485894   -0.0001070598
  -0.0001017273   -0.0000648038    0.0000809484
   0.0004599463   -0.0068355316   -0.0044318896
  -0.0000237791    0.0000358954    0.0000726714
   0.0000654123    0.0007793670    0.0000868540
  -0.0001377044    0.0002065359   -0.0001612673
  -0.0009654120    0.0059750492   -0.0044529338
  -0.0000212799   -0.0000758048    0.0000630261
   0.0000175234   -0.0008330025   -0.0001291186
  -0.0006379461   -0.0002004907    0.0059734155
  -0.0017637699    0.0005175967    0.0037879585