q-position: [    0.0000000,    0.0000000,    0.0000000 ]
point_group: mmm
transformation_matrix:
- [  1.0000000,  0.0000000,  0.0000000 ]
- [  0.0000000,  1.0000000,  0.0000000 ]
- [  0.0000000,  0.0000000,  1.0000000 ]
rotations:
- matrix:
  - [  1,  0,  0 ]
  - [  0,  1,  0 ]
  - [  0,  0,  1 ]
  symbol: E
- matrix:
  - [ -1,  0,  0 ]
  - [  0, -1,  0 ]
  - [  0,  0, -1 ]
  symbol: i
- matrix:
  - [ -1,  0,  0 ]
  - [  0, -1,  0 ]
  - [  0,  0,  1 ]
  symbol: C2
- matrix:
  - [  1,  0,  0 ]
  - [  0,  1,  0 ]
  - [  0,  0, -1 ]
  symbol: sgxy
- matrix:
  - [  1,  0,  0 ]
  - [  0, -1,  0 ]
  - [  0,  0, -1 ]
  symbol: C2x
- matrix:
  - [ -1,  0,  0 ]
  - [  0,  1,  0 ]
  - [  0,  0,  1 ]
  symbol: sgyz
- matrix:
  - [ -1,  0,  0 ]
  - [  0,  1,  0 ]
  - [  0,  0, -1 ]
  symbol: C2y
- matrix:
  - [  1,  0,  0 ]
  - [  0, -1,  0 ]
  - [  0,  0,  1 ]
  symbol: sgxz
normal_modes:
- band_indices: [ 1 ]
  frequency: -0.2084531357  
  ir_label: B2u
  characters: [ [  1,   0.0 ], [  1, 180.0 ], [  1, 180.0 ], [  1,   0.0 ], [  1, 180.0 ], [  1,   0.0 ], [  1,   0.0 ], [  1, 180.0 ] ]
- band_indices: [ 2 ]
  frequency: -0.0024125085  
  ir_label: B1u
  characters: [ [  1,   0.0 ], [  1, 180.0 ], [  1,   0.0 ], [  1, 180.0 ], [  1, 180.0 ], [  1,   0.0 ], [  1, 180.0 ], [  1,   0.0 ] ]
- band_indices: [ 3 ]
  frequency: -0.0014472147  
  ir_label: B3u
  characters: [ [  1,   0.0 ], [  1, 180.0 ], [  1, 180.0 ], [  1,   0.0 ], [  1,   0.0 ], [  1, 180.0 ], [  1, 180.0 ], [  1,   0.0 ] ]
- band_indices: [ 4 ]
  frequency: 1.1819034705   
  ir_label: B2u
  characters: [ [  1,   0.0 ], [  1, 180.0 ], [  1, 180.0 ], [  1,   0.0 ], [  1, 180.0 ], [  1,   0.0 ], [  1,   0.0 ], [  1, 180.0 ] ]
- band_indices: [ 5 ]
  frequency: 1.5184301876   
  ir_label: Au
  characters: [ [  1,   0.0 ], [  1, 180.0 ], [  1,   0.0 ], [  1, 180.0 ], [  1,   0.0 ], [  1, 180.0 ], [  1,   0.0 ], [  1, 180.0 ] ]
- band_indices: [ 6 ]
  frequency: 1.7972339584   
  ir_label: Ag
  characters: [ [  1,   0.0 ], [  1,   0.0 ], [  1,   0.0 ], [  1,   0.0 ], [  1,   0.0 ], [  1,   0.0 ], [  1,   0.0 ], [  1,   0.0 ] ]
- band_indices: [ 7 ]
  frequency: 1.8574531507   
  ir_label: B1u
  characters: [ [  1,   0.0 ], [  1, 180.0 ], [  1,   0.0 ], [  1, 180.0 ], [  1, 180.0 ], [  1,   0.0 ], [  1, 180.0 ], [  1,   0.0 ] ]
- band_indices: [ 8 ]
  frequency: 1.9296520506   
  ir_label: Au
  characters: [ [  1,   0.0 ], [  1, 180.0 ], [  1,   0.0 ], [  1, 180.0 ], [  1,   0.0 ], [  1, 180.0 ], [  1,   0.0 ], [  1, 180.0 ] ]
- band_indices: [ 9 ]
  frequency: 1.9333840979   
  ir_label: B2g
  characters: [ [  1,   0.0 ], [  1,   0.0 ], [  1, 180.0 ], [  1, 180.0 ], [  1, 180.0 ], [  1, 180.0 ], [  1,   0.0 ], [  1,   0.0 ] ]
- band_indices: [ 10 ]
  frequency: 1.9795325772   
  ir_label: B3u
  characters: [ [  1,   0.0 ], [  1, 180.0 ], [  1, 180.0 ], [  1,   0.0 ], [  1,   0.0 ], [  1, 180.0 ], [  1, 180.0 ], [  1,   0.0 ] ]
- band_indices: [ 11 ]
  frequency: 2.0424623890   
  ir_label: Au
  characters: [ [  1,   0.0 ], [  1, 180.0 ], [  1,   0.0 ], [  1, 180.0 ], [  1,   0.0 ], [  1, 180.0 ], [  1,   0.0 ], [  1, 180.0 ] ]
- band_indices: [ 12 ]
  frequency: 2.0607732394   
  ir_label: B1u
  characters: [ [  1,   0.0 ], [  1, 180.0 ], [  1,   0.0 ], [  1, 180.0 ], [  1, 180.0 ], [  1,   0.0 ], [  1, 180.0 ], [  1,   0.0 ] ]
- band_indices: [ 13 ]
  frequency: 2.2820931384   
  ir_label: Ag
  characters: [ [  1,   0.0 ], [  1,   0.0 ], [  1,   0.0 ], [  1,   0.0 ], [  1,   0.0 ], [  1,   0.0 ], [  1,   0.0 ], [  1,   0.0 ] ]
- band_indices: [ 14 ]
  frequency: 2.3038885736   
  ir_label: B3g
  characters: [ [  1,   0.0 ], [  1,   0.0 ], [  1, 180.0 ], [  1, 180.0 ], [  1,   0.0 ], [  1,   0.0 ], [  1, 180.0 ], [  1, 180.0 ] ]
- band_indices: [ 15 ]
  frequency: 2.3717786725   
  ir_label: B3u
  characters: [ [  1,   0.0 ], [  1, 180.0 ], [  1, 180.0 ], [  1,   0.0 ], [  1,   0.0 ], [  1, 180.0 ], [  1, 180.0 ], [  1,   0.0 ] ]
- band_indices: [ 16 ]
  frequency: 2.4159988784   
  ir_label: B2u
  characters: [ [  1,   0.0 ], [  1, 180.0 ], [  1, 180.0 ], [  1,   0.0 ], [  1, 180.0 ], [  1,   0.0 ], [  1,   0.0 ], [  1, 180.0 ] ]
- band_indices: [ 17 ]
  frequency: 2.4608730934   
  ir_label: B2g
  characters: [ [  1,   0.0 ], [  1,   0.0 ], [  1, 180.0 ], [  1, 180.0 ], [  1, 180.0 ], [  1, 180.0 ], [  1,   0.0 ], [  1,   0.0 ] ]
- band_indices: [ 18 ]
  frequency: 2.6439737409   
  ir_label: B1g
  characters: [ [  1,   0.0 ], [  1,   0.0 ], [  1,   0.0 ], [  1,   0.0 ], [  1, 180.0 ], [  1, 180.0 ], [  1, 180.0 ], [  1, 180.0 ] ]
- band_indices: [ 19 ]
  frequency: 2.8886734843   
  ir_label: B2g
  characters: [ [  1,   0.0 ], [  1,   0.0 ], [  1, 180.0 ], [  1, 180.0 ], [  1, 180.0 ], [  1, 180.0 ], [  1,   0.0 ], [  1,   0.0 ] ]
- band_indices: [ 20 ]
  frequency: 2.9318590542   
  ir_label: Ag
  characters: [ [  1,   0.0 ], [  1,   0.0 ], [  1,   0.0 ], [  1,   0.0 ], [  1,   0.0 ], [  1,   0.0 ], [  1,   0.0 ], [  1,   0.0 ] ]
- band_indices: [ 21 ]
  frequency: 3.3161608334   
  ir_label: B1g
  characters: [ [  1,   0.0 ], [  1,   0.0 ], [  1,   0.0 ], [  1,   0.0 ], [  1, 180.0 ], [  1, 180.0 ], [  1, 180.0 ], [  1, 180.0 ] ]
- band_indices: [ 22 ]
  frequency: 3.3862204895   
  ir_label: B1u
  characters: [ [  1,   0.0 ], [  1, 180.0 ], [  1,   0.0 ], [  1, 180.0 ], [  1, 180.0 ], [  1,   0.0 ], [  1, 180.0 ], [  1,   0.0 ] ]
- band_indices: [ 23 ]
  frequency: 3.3941244191   
  ir_label: Au
  characters: [ [  1,   0.0 ], [  1, 180.0 ], [  1,   0.0 ], [  1, 180.0 ], [  1,   0.0 ], [  1, 180.0 ], [  1,   0.0 ], [  1, 180.0 ] ]
- band_indices: [ 24 ]
  frequency: 3.4754629961   
  ir_label: B2u
  characters: [ [  1,   0.0 ], [  1, 180.0 ], [  1, 180.0 ], [  1,   0.0 ], [  1, 180.0 ], [  1,   0.0 ], [  1,   0.0 ], [  1, 180.0 ] ]
- band_indices: [ 25 ]
  frequency: 3.5595839897   
  ir_label: B3u
  characters: [ [  1,   0.0 ], [  1, 180.0 ], [  1, 180.0 ], [  1,   0.0 ], [  1,   0.0 ], [  1, 180.0 ], [  1, 180.0 ], [  1,   0.0 ] ]
- band_indices: [ 26 ]
  frequency: 3.8490881179   
  ir_label: B1u
  characters: [ [  1,   0.0 ], [  1, 180.0 ], [  1,   0.0 ], [  1, 180.0 ], [  1, 180.0 ], [  1,   0.0 ], [  1, 180.0 ], [  1,   0.0 ] ]
- band_indices: [ 27 ]
  frequency: 4.0478581868   
  ir_label: B3u
  characters: [ [  1,   0.0 ], [  1, 180.0 ], [  1, 180.0 ], [  1,   0.0 ], [  1,   0.0 ], [  1, 180.0 ], [  1, 180.0 ], [  1,   0.0 ] ]
- band_indices: [ 28 ]
  frequency: 4.1808144969   
  ir_label: B2u
  characters: [ [  1,   0.0 ], [  1, 180.0 ], [  1, 180.0 ], [  1,   0.0 ], [  1, 180.0 ], [  1,   0.0 ], [  1,   0.0 ], [  1, 180.0 ] ]
- band_indices: [ 29 ]
  frequency: 4.3129820197   
  ir_label: Ag
  characters: [ [  1,   0.0 ], [  1,   0.0 ], [  1,   0.0 ], [  1,   0.0 ], [  1,   0.0 ], [  1,   0.0 ], [  1,   0.0 ], [  1,   0.0 ] ]
- band_indices: [ 30 ]
  frequency: 4.3730970872   
  ir_label: Au
  characters: [ [  1,   0.0 ], [  1, 180.0 ], [  1,   0.0 ], [  1, 180.0 ], [  1,   0.0 ], [  1, 180.0 ], [  1,   0.0 ], [  1, 180.0 ] ]
- band_indices: [ 31 ]
  frequency: 4.6556148749   
  ir_label: B1u
  characters: [ [  1,   0.0 ], [  1, 180.0 ], [  1,   0.0 ], [  1, 180.0 ], [  1, 180.0 ], [  1,   0.0 ], [  1, 180.0 ], [  1,   0.0 ] ]
- band_indices: [ 32 ]
  frequency: 4.7344826167   
  ir_label: B3u
  characters: [ [  1,   0.0 ], [  1, 180.0 ], [  1, 180.0 ], [  1,   0.0 ], [  1,   0.0 ], [  1, 180.0 ], [  1, 180.0 ], [  1,   0.0 ] ]
- band_indices: [ 33 ]
  frequency: 4.7649069755   
  ir_label: B3g
  characters: [ [  1,   0.0 ], [  1,   0.0 ], [  1, 180.0 ], [  1, 180.0 ], [  1,   0.0 ], [  1,   0.0 ], [  1, 180.0 ], [  1, 180.0 ] ]
- band_indices: [ 34 ]
  frequency: 5.0378652001   
  ir_label: B2g
  characters: [ [  1,   0.0 ], [  1,   0.0 ], [  1, 180.0 ], [  1, 180.0 ], [  1, 180.0 ], [  1, 180.0 ], [  1,   0.0 ], [  1,   0.0 ] ]
- band_indices: [ 35 ]
  frequency: 5.0535270621   
  ir_label: Ag
  characters: [ [  1,   0.0 ], [  1,   0.0 ], [  1,   0.0 ], [  1,   0.0 ], [  1,   0.0 ], [  1,   0.0 ], [  1,   0.0 ], [  1,   0.0 ] ]
- band_indices: [ 36 ]
  frequency: 5.0984487861   
  ir_label: B3u
  characters: [ [  1,   0.0 ], [  1, 180.0 ], [  1, 180.0 ], [  1,   0.0 ], [  1,   0.0 ], [  1, 180.0 ], [  1, 180.0 ], [  1,   0.0 ] ]
- band_indices: [ 37 ]
  frequency: 5.2615402148   
  ir_label: B1g
  characters: [ [  1,   0.0 ], [  1,   0.0 ], [  1,   0.0 ], [  1,   0.0 ], [  1, 180.0 ], [  1, 180.0 ], [  1, 180.0 ], [  1, 180.0 ] ]
- band_indices: [ 38 ]
  frequency: 5.2892193343   
  ir_label: B1u
  characters: [ [  1,   0.0 ], [  1, 180.0 ], [  1,   0.0 ], [  1, 180.0 ], [  1, 180.0 ], [  1,   0.0 ], [  1, 180.0 ], [  1,   0.0 ] ]
- band_indices: [ 39 ]
  frequency: 6.0585694449   
  ir_label: B2g
  characters: [ [  1,   0.0 ], [  1,   0.0 ], [  1, 180.0 ], [  1, 180.0 ], [  1, 180.0 ], [  1, 180.0 ], [  1,   0.0 ], [  1,   0.0 ] ]
- band_indices: [ 40 ]
  frequency: 6.1091770084   
  ir_label: B3g
  characters: [ [  1,   0.0 ], [  1,   0.0 ], [  1, 180.0 ], [  1, 180.0 ], [  1,   0.0 ], [  1,   0.0 ], [  1, 180.0 ], [  1, 180.0 ] ]
- band_indices: [ 41 ]
  frequency: 6.2193714831   
  ir_label: Ag
  characters: [ [  1,   0.0 ], [  1,   0.0 ], [  1,   0.0 ], [  1,   0.0 ], [  1,   0.0 ], [  1,   0.0 ], [  1,   0.0 ], [  1,   0.0 ] ]
- band_indices: [ 42 ]
  frequency: 6.4656108290   
  ir_label: B2g
  characters: [ [  1,   0.0 ], [  1,   0.0 ], [  1, 180.0 ], [  1, 180.0 ], [  1, 180.0 ], [  1, 180.0 ], [  1,   0.0 ], [  1,   0.0 ] ]
- band_indices: [ 43 ]
  frequency: 6.5962942560   
  ir_label: B2u
  characters: [ [  1,   0.0 ], [  1, 180.0 ], [  1, 180.0 ], [  1,   0.0 ], [  1, 180.0 ], [  1,   0.0 ], [  1,   0.0 ], [  1, 180.0 ] ]
- band_indices: [ 44 ]
  frequency: 6.6712444657   
  ir_label: Au
  characters: [ [  1,   0.0 ], [  1, 180.0 ], [  1,   0.0 ], [  1, 180.0 ], [  1,   0.0 ], [  1, 180.0 ], [  1,   0.0 ], [  1, 180.0 ] ]
- band_indices: [ 45 ]
  frequency: 6.7994393495   
  ir_label: B1u
  characters: [ [  1,   0.0 ], [  1, 180.0 ], [  1,   0.0 ], [  1, 180.0 ], [  1, 180.0 ], [  1,   0.0 ], [  1, 180.0 ], [  1,   0.0 ] ]
- band_indices: [ 46 ]
  frequency: 6.8147589884   
  ir_label: B3u
  characters: [ [  1,   0.0 ], [  1, 180.0 ], [  1, 180.0 ], [  1,   0.0 ], [  1,   0.0 ], [  1, 180.0 ], [  1, 180.0 ], [  1,   0.0 ] ]
- band_indices: [ 47 ]
  frequency: 6.8195330156   
  ir_label: B1u
  characters: [ [  1,   0.0 ], [  1, 180.0 ], [  1,   0.0 ], [  1, 180.0 ], [  1, 180.0 ], [  1,   0.0 ], [  1, 180.0 ], [  1,   0.0 ] ]
- band_indices: [ 48 ]
  frequency: 7.4443301251   
  ir_label: B3u
  characters: [ [  1,   0.0 ], [  1, 180.0 ], [  1, 180.0 ], [  1,   0.0 ], [  1,   0.0 ], [  1, 180.0 ], [  1, 180.0 ], [  1,   0.0 ] ]
- band_indices: [ 49 ]
  frequency: 8.5927344681   
  ir_label: B2u
  characters: [ [  1,   0.0 ], [  1, 180.0 ], [  1, 180.0 ], [  1,   0.0 ], [  1, 180.0 ], [  1,   0.0 ], [  1,   0.0 ], [  1, 180.0 ] ]
- band_indices: [ 50 ]
  frequency: 8.7079545462   
  ir_label: Au
  characters: [ [  1,   0.0 ], [  1, 180.0 ], [  1,   0.0 ], [  1, 180.0 ], [  1,   0.0 ], [  1, 180.0 ], [  1,   0.0 ], [  1, 180.0 ] ]
- band_indices: [ 51 ]
  frequency: 8.7224983292   
  ir_label: B3u
  characters: [ [  1,   0.0 ], [  1, 180.0 ], [  1, 180.0 ], [  1,   0.0 ], [  1,   0.0 ], [  1, 180.0 ], [  1, 180.0 ], [  1,   0.0 ] ]
- band_indices: [ 52 ]
  frequency: 8.7795755790   
  ir_label: B2u
  characters: [ [  1,   0.0 ], [  1, 180.0 ], [  1, 180.0 ], [  1,   0.0 ], [  1, 180.0 ], [  1,   0.0 ], [  1,   0.0 ], [  1, 180.0 ] ]
- band_indices: [ 53 ]
  frequency: 8.7848577950   
  ir_label: B1g
  characters: [ [  1,   0.0 ], [  1,   0.0 ], [  1,   0.0 ], [  1,   0.0 ], [  1, 180.0 ], [  1, 180.0 ], [  1, 180.0 ], [  1, 180.0 ] ]
- band_indices: [ 54 ]
  frequency: 8.8014634582   
  ir_label: B3g
  characters: [ [  1,   0.0 ], [  1,   0.0 ], [  1, 180.0 ], [  1, 180.0 ], [  1,   0.0 ], [  1,   0.0 ], [  1, 180.0 ], [  1, 180.0 ] ]
- band_indices: [ 55 ]
  frequency: 8.8538823164   
  ir_label: B1u
  characters: [ [  1,   0.0 ], [  1, 180.0 ], [  1,   0.0 ], [  1, 180.0 ], [  1, 180.0 ], [  1,   0.0 ], [  1, 180.0 ], [  1,   0.0 ] ]
- band_indices: [ 56 ]
  frequency: 8.9798076526   
  ir_label: Au
  characters: [ [  1,   0.0 ], [  1, 180.0 ], [  1,   0.0 ], [  1, 180.0 ], [  1,   0.0 ], [  1, 180.0 ], [  1,   0.0 ], [  1, 180.0 ] ]
- band_indices: [ 57 ]
  frequency: 9.1919141060   
  ir_label: Ag
  characters: [ [  1,   0.0 ], [  1,   0.0 ], [  1,   0.0 ], [  1,   0.0 ], [  1,   0.0 ], [  1,   0.0 ], [  1,   0.0 ], [  1,   0.0 ] ]
- band_indices: [ 58 ]
  frequency: 11.4928031796  
  ir_label: B1g
  characters: [ [  1,   0.0 ], [  1,   0.0 ], [  1,   0.0 ], [  1,   0.0 ], [  1, 180.0 ], [  1, 180.0 ], [  1, 180.0 ], [  1, 180.0 ] ]
- band_indices: [ 59 ]
  frequency: 12.0368669846  
  ir_label: B2g
  characters: [ [  1,   0.0 ], [  1,   0.0 ], [  1, 180.0 ], [  1, 180.0 ], [  1, 180.0 ], [  1, 180.0 ], [  1,   0.0 ], [  1,   0.0 ] ]
- band_indices: [ 60 ]
  frequency: 12.7051088829  
  ir_label: B3g
  characters: [ [  1,   0.0 ], [  1,   0.0 ], [  1, 180.0 ], [  1, 180.0 ], [  1,   0.0 ], [  1,   0.0 ], [  1, 180.0 ], [  1, 180.0 ] ]
