216  
8    

1    
  0.0085622777613641   0.0000000000000000   0.0051659848564674
  -0.0315410213    0.0000509306   -0.0268223609
   0.0012352968    0.0000657574    0.0000105951
   0.0018116148    0.0003404703   -0.0009330380
   0.0000153922    0.0000781154   -0.0004592295
   0.0002144772    0.0000857686   -0.0000102216
   0.0003082113   -0.0001352732    0.0000292253
  -0.0002694916   -0.0004988608   -0.0004575942
   0.0000823732   -0.0003316690    0.0000212375
  -0.0000518656    0.0003358200   -0.0001572806
  -0.0029028391   -0.0000002045    0.0048472667
   0.0010749029    0.0000695226    0.0004519847
   0.0005698253    0.0002299608   -0.0000723765
  -0.0001085724   -0.0000004325    0.0001932404
   0.0001537296   -0.0000464377    0.0000153418
   0.0001364520    0.0000279761    0.0000362262
  -0.0002091127   -0.0003227812    0.0001934054
   0.0000060079   -0.0001714326    0.0000847378
  -0.0000694459    0.0001389152    0.0000589666
  -0.0028791881    0.0000019120    0.0048464498
   0.0006924196    0.0001709892   -0.0002360052
   0.0010154829    0.0004478167    0.0006251249
  -0.0000481067   -0.0005856565    0.0002405169
   0.0001050432   -0.0000170950   -0.0000126753
   0.0001597657   -0.0000653704    0.0001507318
  -0.0002647871   -0.0000525891    0.0001369823
  -0.0000350322   -0.0002266553   -0.0000293098
  -0.0000758036    0.0002348652    0.0000867562
   0.0007384202    0.0023338056   -0.0011028895
   0.0003898979   -0.0000146958   -0.0001362138
   0.0002021976   -0.0024973709   -0.0015022698
  -0.0000148752   -0.0000241671   -0.0000867732
  -0.0001324394    0.0000160885   -0.0000521429
  -0.0000371698   -0.0000459472   -0.0001506380
   0.0007877732   -0.0019826939   -0.0007319686
   0.0004384903    0.0000092508   -0.0001000886
   0.0002881118    0.0027851277   -0.0017505423
   0.0005903065    0.0017823762    0.0011751771
  -0.0000905968    0.0000470296    0.0000241843
  -0.0003635062   -0.0005267922    0.0001750870
   0.0000267736   -0.0000235665    0.0000846497
  -0.0001338666    0.0000154857    0.0000062017
   0.0000390301    0.0000106843    0.0000375771
   0.0007150538   -0.0012938066    0.0012810254
   0.0001189362    0.0000403410    0.0000310495
  -0.0002402631    0.0007962287   -0.0001890169
  -0.0003954596    0.0008173806   -0.0001435123
   0.0000826715    0.0000283212    0.0000885531
   0.0005659263   -0.0013494600    0.0012642033
   0.0000083631    0.0000033885    0.0000336115
  -0.0001307806    0.0000203088    0.0000054049
   0.0000288367    0.0000057781    0.0000205973
  -0.0004082582   -0.0004661916    0.0001952545
   0.0002703518    0.0000288191    0.0000315728
   0.0005219835    0.0017565270    0.0011238443
   0.0001786427   -0.0016108826   -0.0033436170
   0.0001569629    0.0000615389   -0.0035960281
  -0.0001057942    0.0004065888   -0.0035170291
   0.0000218378   -0.0000132035   -0.0035144683
   0.0000049518    0.0000334883   -0.0035082772
   0.0000034255    0.0000167889   -0.0035008109
  -0.0005524823   -0.0022977080   -0.0045750073
  -0.0001509105   -0.0000077087   -0.0035432182
   0.0001610479    0.0004112973   -0.0034888238
  -0.0001702705   -0.0001588490   -0.0035811134
   0.0001813826   -0.0001643145   -0.0034696304
  -0.0000339049    0.0001740582   -0.0035666562
  -0.0000071997   -0.0000010407   -0.0035104232
  -0.0000158429    0.0000282660   -0.0034966748
  -0.0000079431    0.0000172604   -0.0035049214
   0.0003140502   -0.0000138924   -0.0030814053
  -0.0000359126    0.0001348224   -0.0034841103
   0.0001420110    0.0000848302   -0.0035798090
  -0.0019609106   -0.0013157031   -0.0035412519
   0.0001732415    0.0000825305   -0.0033684435
  -0.0003639406    0.0006192618   -0.0034180396
   0.0000140222   -0.0000038391   -0.0034766230
   0.0000023051    0.0000221393   -0.0034884980
   0.0000175227    0.0000272652   -0.0034996711
   0.0002006779   -0.0001627199   -0.0022914680
  -0.0002632243    0.0002744912   -0.0034840043
   0.0002658276    0.0002850971   -0.0035525002
   0.0019304608   -0.0021426968    0.0048488523
  -0.0001503810   -0.0001748319    0.0035238000
   0.0008468308   -0.0004687201    0.0033408853
  -0.0000480250    0.0000269152    0.0035148888
  -0.0000673642   -0.0000402237    0.0035233955
   0.0000264357    0.0000802682    0.0034631667
  -0.0001295946   -0.0000374305    0.0036152380
  -0.0000633412   -0.0000541605    0.0034872616
  -0.0000064767    0.0001515884    0.0035825092
  -0.0001217597    0.0000740618    0.0031418155
  -0.0001288010   -0.0001438086    0.0034893827
  -0.0003128710    0.0000945748    0.0041990678
  -0.0000328463    0.0000663264    0.0034663931
  -0.0000500618   -0.0000444247    0.0035064401
   0.0001436067   -0.0000026470    0.0034711099
   0.0001145544    0.0000091453    0.0034744111
  -0.0000626923   -0.0000533966    0.0034919064
  -0.0003475548    0.0000955626    0.0034868770
   0.0027978492    0.0015253415    0.0018701597
  -0.0001780880   -0.0002595671    0.0034848009
   0.0034020454    0.0003386272    0.0041689205
   0.0002290760    0.0001045662    0.0034777825
  -0.0000549363   -0.0000606313    0.0035115130
   0.0004204459    0.0000447270    0.0034262788
  -0.0001785453    0.0000137151    0.0034889325
  -0.0000712739   -0.0000587965    0.0034796004
  -0.0003061113    0.0000871878    0.0034629026
   0.0011056591    0.0001959227   -0.0002235771
   0.0001951158    0.0002909285   -0.0003931770
   0.0002820284    0.0006449399   -0.0001352245
   0.0005400911    0.0005083078   -0.0002238082
   0.0005081933    0.0005099668   -0.0003019157
   0.0004967091    0.0004782734   -0.0002769006
   0.0057706277   -0.0039329478    0.0062736553
   0.0002329796    0.0006946646   -0.0002870208
   0.0003110624    0.0003388967   -0.0000985211
   0.0009151191    0.0004486542   -0.0006377714
   0.0004929128    0.0002684817   -0.0003663141
   0.0004171424    0.0004560456   -0.0004466346
   0.0005088994    0.0005319059   -0.0003137774
   0.0005665129    0.0004038926   -0.0003089531
   0.0004275017    0.0005519173   -0.0003253137
   0.0007151368    0.0004458763   -0.0008322061
   0.0005361006    0.0004579953   -0.0003330073
   0.0004447033    0.0003885694   -0.0004162530
   0.0014584489    0.0011419593    0.0004646542
   0.0003565784    0.0003549662   -0.0003703196
   0.0002294803    0.0006795937   -0.0003438538
   0.0005353001    0.0005339668   -0.0002197200
   0.0005311074    0.0005054886   -0.0002881491
   0.0004768269    0.0005008500   -0.0003142110
   0.0028907687   -0.0007213239   -0.0004679135
   0.0003322825    0.0006957793   -0.0002299408
   0.0003429593    0.0004884829   -0.0003232613
  -0.0007722551   -0.0007009542   -0.0000811827
  -0.0006555910   -0.0003299207   -0.0001673753
   0.0008223381   -0.0010485724   -0.0000476032
  -0.0005223172   -0.0004722755   -0.0002588059
  -0.0004587899   -0.0004733481   -0.0002733006
  -0.0004577121   -0.0004447971   -0.0002966495
  -0.0007778519   -0.0003204034   -0.0002568351
  -0.0006730258   -0.0006540539   -0.0001844496
   0.0004098378    0.0006556359   -0.0003710708
  -0.0006580789   -0.0006038699   -0.0004070916
  -0.0004554605   -0.0004755269   -0.0003481761
  -0.0001448830   -0.0006749985   -0.0008475977
  -0.0005598267   -0.0004620325   -0.0002956068
  -0.0004071853   -0.0005945943   -0.0003093895
  -0.0004860964   -0.0004619201   -0.0003830149
  -0.0006303372   -0.0004789819   -0.0004193375
  -0.0004939831   -0.0006861013   -0.0003302298
  -0.0000738618   -0.0003848348   -0.0006659916
  -0.0005365395   -0.0003962887   -0.0003187860
  -0.0007969884   -0.0001286685   -0.0003890943
   0.0034959889   -0.0037725313    0.0025488668
  -0.0005129066   -0.0004839126   -0.0002765552
  -0.0004743058   -0.0004765740   -0.0002852551
  -0.0004540656   -0.0004724683   -0.0003123037
  -0.0006916357   -0.0003996139   -0.0001378196
  -0.0008272968   -0.0007445485   -0.0000998225
   0.0001184602   -0.0007723059   -0.0004796445
   0.0004409443   -0.0007065568    0.0002606257
   0.0003940529   -0.0005603746    0.0003049997
   0.0005955841   -0.0003112028    0.0004646155
   0.0004273682   -0.0003088489    0.0003516525
   0.0003810222   -0.0004781891    0.0003326301
   0.0007020140   -0.0004563023    0.0002073441
  -0.0005894137    0.0001128575    0.0004258729
   0.0001924351   -0.0005479046    0.0004174941
   0.0018107125    0.0006992079    0.0002141856
   0.0005308260   -0.0007032220    0.0001558932
   0.0004153025   -0.0003625201    0.0002714172
   0.0005549700   -0.0002394201    0.0001641405
   0.0005252305   -0.0004375772    0.0002744502
   0.0004812378   -0.0004400917    0.0003030827
   0.0005964778   -0.0005754405    0.0002048725
   0.0004988375   -0.0004188399    0.0000532486
   0.0001938900   -0.0005070580    0.0002376877
   0.0007502928   -0.0005591497   -0.0003729051
   0.0004998245   -0.0006595477    0.0004131955
   0.0003991033   -0.0005417050    0.0003418818
   0.0005591824   -0.0002307892    0.0005002276
   0.0005108934   -0.0004647878    0.0003336609
   0.0003698194   -0.0004968416    0.0003394760
   0.0005954961   -0.0005914340    0.0003024289
  -0.0007898991   -0.0013472531    0.0015123290
   0.0001660029   -0.0005738447    0.0004027376
   0.0067736193    0.0046603162    0.0071154019
   0.0030494733    0.0033583850    0.0032035550
  -0.0007679932    0.0004445251    0.0002091856
  -0.0006431748    0.0007471954    0.0007185568
  -0.0004443771    0.0003938527    0.0003359698
  -0.0006097468    0.0004902059    0.0002573830
  -0.0004523996    0.0004756394    0.0003455167
  -0.0004915636    0.0007849969    0.0000592502
  -0.0005937949    0.0004225364    0.0002726855
  -0.0004536247    0.0003462981    0.0004219693
  -0.0001060166    0.0005528531   -0.0001439655
  -0.0007865329    0.0004712398    0.0002172198
  -0.0006387696    0.0005661645   -0.0001938082
  -0.0004087334    0.0004445445    0.0002590101
  -0.0005056570    0.0005513180    0.0002358981
  -0.0005006735    0.0005475895    0.0002180288
  -0.0004260500    0.0006325093    0.0001770417
  -0.0005331967    0.0006266336    0.0002790353
  -0.0004696285    0.0002575137    0.0001507299
   0.0021683729    0.0018287450    0.0000500427
  -0.0008595880    0.0003974694    0.0002418342
  -0.0032237623   -0.0000687468   -0.0009416977
  -0.0003553015    0.0004882834    0.0003984088
  -0.0006210752    0.0005091244    0.0002490007
  -0.0005114293    0.0006498874    0.0002630239
  -0.0003762330    0.0006610601    0.0004833281
  -0.0006254685    0.0004109663    0.0002865492
  -0.0005065514    0.0002543897    0.0003607555

1    
 -0.0085622777613641   0.0000000000000000  -0.0051659848564674
   0.0316047660    0.0001950982    0.0268951829
  -0.0012457431   -0.0003439817    0.0000086896
  -0.0018190341   -0.0000587379    0.0009612492
   0.0002680517   -0.0000884222    0.0004874840
   0.0000123200   -0.0003277287    0.0000232456
  -0.0000737063    0.0003639579    0.0000057754
  -0.0000086426    0.0004972632    0.0004822631
  -0.0003252339    0.0000973118    0.0002098235
  -0.0001839145   -0.0001024758   -0.0000269717
   0.0028832879    0.0000038502   -0.0048237917
  -0.0010860307   -0.0002570302   -0.0004257535
  -0.0005676159   -0.0000370348    0.0000975296
   0.0003028475   -0.0000065743   -0.0001230330
   0.0000258650   -0.0001479201   -0.0000385936
   0.0000503317    0.0001523086   -0.0000112048
   0.0000205410    0.0003192208   -0.0002168078
  -0.0001999808   -0.0000423768   -0.0000117295
  -0.0001205299    0.0000464446   -0.0000334007
   0.0029040095    0.0000019198   -0.0048247210
  -0.0006981165   -0.0003592693    0.0002613373
  -0.0010227773   -0.0002579669   -0.0006031334
   0.0002405623    0.0005779172   -0.0002649837
   0.0000765776   -0.0001768897    0.0000383829
   0.0000264980    0.0002464483   -0.0000788245
   0.0000765004    0.0000545714   -0.0000649866
  -0.0001608568    0.0000333398    0.0000539450
  -0.0001131020   -0.0000489915   -0.0001106237
  -0.0007649659   -0.0022783083    0.0006663320
  -0.0004602635    0.0000105918    0.0001122908
  -0.0002702791    0.0024595781    0.0018961026
   0.0000103016   -0.0000040979    0.0000634377
   0.0001045198   -0.0000436682    0.0000283064
   0.0000409413    0.0000181279    0.0001268044
  -0.0007595185    0.0020263513    0.0009150060
  -0.0004250709   -0.0000078354    0.0000759209
  -0.0002163360   -0.0028253331    0.0015248263
  -0.0006392811   -0.0017350849   -0.0014318262
  -0.0001255618   -0.0000504246   -0.0000461005
   0.0003202110    0.0004700873    0.0000360734
  -0.0000313469   -0.0000037120   -0.0001071394
   0.0001058199   -0.0000430516   -0.0000280848
  -0.0000355386   -0.0000391482   -0.0000601574
  -0.0006715486    0.0013439050   -0.0010666406
   0.0000405288   -0.0000368181   -0.0000536850
   0.0002916451   -0.0008376562   -0.0000736354
   0.0003420133   -0.0007705333   -0.0001173851
  -0.0002990723   -0.0000323944   -0.0001122053
  -0.0005799771    0.0013036243   -0.0010528650
  -0.0000135056   -0.0000316053   -0.0000573395
   0.0001032717   -0.0000488086   -0.0000288485
  -0.0000249672   -0.0000339656   -0.0000438598
   0.0004486881    0.0005178257    0.0000216725
  -0.0001112077   -0.0000249034   -0.0000540799
  -0.0004703555   -0.0018061537   -0.0013860752
  -0.0006040681    0.0015951365   -0.0036533698
  -0.0001434859   -0.0005318589   -0.0034053459
   0.0001197606    0.0000676542   -0.0034827897
  -0.0000198103    0.0000150108   -0.0034855684
  -0.0000031964   -0.0000316515   -0.0034918394
  -0.0000017073   -0.0000148839   -0.0034993498
   0.0009873031    0.0023125644   -0.0024409791
   0.0001406136   -0.0004626133   -0.0034574219
  -0.0001715144    0.0000630168   -0.0035119673
  -0.0003019042    0.0005054403   -0.0034226119
  -0.0001681503   -0.0001821511   -0.0035302534
   0.0000480865   -0.0001689461   -0.0034334187
   0.0000091934    0.0000030406   -0.0034895542
   0.0000172326   -0.0000237059   -0.0035021652
   0.0000096187   -0.0000156351   -0.0034952668
   0.0001629170    0.0003610204   -0.0039199663
   0.0000254992   -0.0004780823   -0.0035174453
  -0.0001519709   -0.0000800444   -0.0034200602
   0.0014806293    0.0009796829   -0.0034626414
  -0.0001588004   -0.0000869861   -0.0036324016
   0.0003805287   -0.0002680854   -0.0035822294
  -0.0000121984    0.0000057090   -0.0035236285
  -0.0000010673   -0.0000216986   -0.0035116821
  -0.0000157735   -0.0000254434   -0.0035005151
   0.0002871429   -0.0001796642   -0.0047069271
   0.0002517143   -0.0002782659   -0.0035154274
  -0.0002787997    0.0000484895   -0.0034458557
  -0.0018798381    0.0021467997    0.0021915708
   0.0001539450    0.0001777086    0.0034757455
  -0.0008422734    0.0004629196    0.0036613456
   0.0003939311   -0.0000356293    0.0034846522
   0.0000691909    0.0000420792    0.0034762579
  -0.0000690561   -0.0000674469    0.0035360758
  -0.0002202605    0.0000272276    0.0033841705
   0.0000653241    0.0000561907    0.0035122855
   0.0000533043   -0.0001381070    0.0034172152
   0.0001269388   -0.0000849896    0.0038601326
   0.0001308133    0.0001460844    0.0035102456
   0.0003139181   -0.0000829614    0.0028004199
  -0.0000067656   -0.0000779108    0.0035331696
   0.0000521463    0.0000462279    0.0034931517
   0.0001784459    0.0000161049    0.0035286012
  -0.0000748051   -0.0000198129    0.0035250572
   0.0000647158    0.0000546910    0.0035078037
   0.0000010993   -0.0000820754    0.0035128083
  -0.0027099722   -0.0015068237    0.0050880292
   0.0001800259    0.0002612984    0.0035149891
  -0.0035114913   -0.0004160356    0.0027750451
   0.0002495170   -0.0001146251    0.0035221657
   0.0000567284    0.0000624183    0.0034879837
   0.0000579937   -0.0000319556    0.0035736725
  -0.0002962728   -0.0000233324    0.0035107004
   0.0000732255    0.0000606381    0.0035199401
  -0.0001678222   -0.0000732908    0.0035366907
  -0.0001154616    0.0007973536   -0.0003525382
   0.0008011235    0.0006899406   -0.0001893015
   0.0007133949    0.0003362642   -0.0004485435
   0.0004554038    0.0004738556   -0.0003588353
   0.0004879031    0.0004718070   -0.0002806271
   0.0004987751    0.0005036206   -0.0003056896
  -0.0046708500    0.0047151909   -0.0066710976
   0.0007626191    0.0002873426   -0.0002948727
   0.0006854609    0.0006432853   -0.0004854950
   0.0000808980    0.0005321188    0.0000576379
   0.0005032002    0.0007131376   -0.0002164462
   0.0005769862    0.0005259310   -0.0001353824
   0.0004871746    0.0004492656   -0.0002684265
   0.0004202427    0.0005895054   -0.0002711282
   0.0005689931    0.0004298756   -0.0002572087
   0.0002801020    0.0005376218    0.0002506968
   0.0004600795    0.0005235880   -0.0002496908
   0.0005515049    0.0005936025   -0.0001653265
  -0.0004641149   -0.0001660575   -0.0010500313
   0.0006399795    0.0006270715   -0.0002117081
   0.0007670971    0.0003009890   -0.0002382901
   0.0004602041    0.0004477955   -0.0003628894
   0.0004654388    0.0004753066   -0.0002931615
   0.0005187374    0.0004808423   -0.0002683250
  -0.0019208823    0.0017311554   -0.0000978631
   0.0006642144    0.0002857959   -0.0003520601
   0.0006550936    0.0004903195   -0.0002617709
  -0.0002210268   -0.0002787318   -0.0004988493
  -0.0003355456   -0.0006486838   -0.0004158308
  -0.0017970741    0.0000483151   -0.0005624453
  -0.0004691341   -0.0005056611   -0.0003239906
  -0.0005329468   -0.0005045269   -0.0003094053
  -0.0005346723   -0.0005324222   -0.0002861320
  -0.0002142690   -0.0006566651   -0.0003255447
  -0.0003190361   -0.0003232273   -0.0003981404
  -0.0013954584   -0.0016331440   -0.0002070244
  -0.0003348005   -0.0003742477   -0.0001744671
  -0.0005363561   -0.0005029329   -0.0002336034
  -0.0008459166   -0.0003049556    0.0002668071
  -0.0004313126   -0.0005155026   -0.0002866586
  -0.0005851864   -0.0003830603   -0.0002732130
  -0.0005058545   -0.0005156916   -0.0001990362
  -0.0003695526   -0.0004877144   -0.0001651160
  -0.0004972587   -0.0002917033   -0.0002522433
  -0.0009186494   -0.0005925810    0.0000842249
  -0.0004565412   -0.0005815946   -0.0002630427
  -0.0001941114   -0.0008512611   -0.0001923625
  -0.0045510216    0.0029276215   -0.0032461559
  -0.0004788221   -0.0004941609   -0.0003059082
  -0.0005172983   -0.0005015353   -0.0002972985
  -0.0005379851   -0.0005054451   -0.0002704809
  -0.0002997415   -0.0005788321   -0.0004453717
  -0.0001654811   -0.0002332613   -0.0004837968
  -0.0011143381   -0.0002064432   -0.0001009943
   0.0005549456   -0.0002712736    0.0003215851
   0.0006018948   -0.0004181655    0.0002768692
   0.0004004474   -0.0006667993    0.0001172835
   0.0005690052   -0.0006696189    0.0002301097
   0.0006146664   -0.0004995705    0.0002493352
   0.0002934353   -0.0005212423    0.0003745627
   0.0015768800   -0.0010881946    0.0001526178
   0.0008021064   -0.0004313783    0.0001640246
  -0.0008097395   -0.0016750270    0.0003746979
   0.0004634799   -0.0002759820    0.0004265980
   0.0005806270   -0.0006156383    0.0003106826
   0.0004403076   -0.0007389543    0.0004188436
   0.0004808325   -0.0005391933    0.0003088314
   0.0005151645   -0.0005371074    0.0002786666
   0.0003990256   -0.0004020546    0.0003771883
   0.0004963404   -0.0005585738    0.0005271110
   0.0008022128   -0.0004705730    0.0003447589
   0.0002469470   -0.0004177756    0.0009557301
   0.0004955206   -0.0003184158    0.0001686810
   0.0005968524   -0.0004362341    0.0002399596
   0.0004364222   -0.0007476238    0.0000809025
   0.0004845212   -0.0005131205    0.0002488130
   0.0006260058   -0.0004807549    0.0002425423
   0.0003995729   -0.0003864339    0.0002798011
   0.0017909032    0.0003625716   -0.0009253981
   0.0008304390   -0.0004041913    0.0001794510
  -0.0061176291   -0.0058590742   -0.0068391621
  -0.0038195455   -0.0022524083   -0.0023836168
  -0.0002234133    0.0005366967    0.0003727208
  -0.0003502680    0.0002358800   -0.0001447462
  -0.0005461252    0.0005882742    0.0002464452
  -0.0003822652    0.0004913312    0.0003246540
  -0.0005404868    0.0005068440    0.0002359634
  -0.0004992557    0.0001975075    0.0005234743
  -0.0003979901    0.0005595660    0.0003091133
  -0.0005382586    0.0006362000    0.0001584515
  -0.0008888099    0.0004276715    0.0007245979
  -0.0002054240    0.0005100391    0.0003648176
  -0.0003525511    0.0004162103    0.0007786112
  -0.0005825240    0.0005380935    0.0003233568
  -0.0004858674    0.0004302719    0.0003461726
  -0.0004912906    0.0004342320    0.0003643349
  -0.0005669619    0.0003509837    0.0004036186
  -0.0004482078    0.0003556780    0.0003019725
  -0.0005219184    0.0007239842    0.0004317557
  -0.0031702133   -0.0008663483    0.0005439832
  -0.0001311445    0.0005850706    0.0003404147
   0.0022470008    0.0010567056    0.0015310645
  -0.0006367116    0.0004932071    0.0001829096
  -0.0003706656    0.0004725029    0.0003331794
  -0.0004808803    0.0003313200    0.0003188386
  -0.0006160176    0.0003205893    0.0000987865
  -0.0003666408    0.0005708179    0.0002946077
  -0.0004851952    0.0007277205    0.0002214489

55   
  0.0085622777613641   0.0000000000000000   0.0051659848564674
   0.0001486722   -0.0002255244    0.0004663223
  -0.0002680218   -0.0002171181    0.0001201920
   0.0000258365    0.0000747259   -0.0001404327
  -0.0005524748   -0.0015982611   -0.0013973015
   0.0002879693   -0.0001338882   -0.0001306172
  -0.0000482956    0.0000292674    0.0000582273
   0.0000495334   -0.0000378959   -0.0000033412
   0.0000309673   -0.0000899468    0.0000075956
  -0.0000004861   -0.0001040702    0.0000067593
  -0.0012585791    0.0008817928   -0.0008115830
  -0.0004204634   -0.0001536504   -0.0000370581
   0.0001259169    0.0000472458   -0.0000336749
  -0.0005063912    0.0017710534    0.0019915685
   0.0002111280   -0.0000760047    0.0001348474
  -0.0002351433    0.0000068871    0.0001537168
   0.0000606476   -0.0001928467    0.0000388672
   0.0000089174   -0.0000836293    0.0000274620
   0.0000195264   -0.0000973146    0.0000148120
  -0.0000780732    0.0002538327    0.0001791692
  -0.0001785485   -0.0001595384   -0.0000417893
  -0.0000557389    0.0000954229    0.0000184956
   0.0002236281   -0.0003822710    0.0001814400
   0.0001432458   -0.0001031332   -0.0000455383
   0.0000249219    0.0000215601    0.0000204443
   0.0000386706   -0.0001111373   -0.0000037733
   0.0000098513   -0.0000846294    0.0000079102
   0.0000135861   -0.0000897280    0.0000084605
   0.0024537434   -0.0022664297   -0.0010186668
  -0.0000387565    0.0000052342   -0.0000262966
   0.0037311563   -0.0016224844    0.0001133868
  -0.0000152226    0.0003585282   -0.0001451960
   0.0000014869   -0.0000449825   -0.0000307592
  -0.0001809868    0.0001180016   -0.0000880709
   0.0000710289    0.0003078538    0.0000102133
  -0.0000122904   -0.0000228965   -0.0000027328
   0.0002110887    0.0001171382    0.0000396208
   0.0019944491   -0.0001693909    0.0017301995
  -0.0000151037    0.0000206556    0.0000154559
   0.0011026575   -0.0009302267   -0.0005856851
   0.0000166151    0.0002135066    0.0001479579
  -0.0000033800   -0.0000452514    0.0000015823
  -0.0001092304    0.0001231035    0.0000865329
   0.0000433518    0.0003449642   -0.0000179437
  -0.0000178706   -0.0000222451   -0.0000063077
   0.0001154246    0.0001166384   -0.0000964335
  -0.0003629335   -0.0000997263    0.0000787238
   0.0000113697    0.0000414589   -0.0000269320
   0.0002716081   -0.0003933656    0.0002342631
  -0.0000653053    0.0001583817   -0.0000754839
  -0.0000065531   -0.0000405146   -0.0000228401
  -0.0001285476   -0.0000483740   -0.0000252444
   0.0000475881    0.0002074961   -0.0000416164
  -0.0000100008   -0.0000237419   -0.0000082219
   0.0001390068   -0.0000371249    0.0000027856
  -0.0777400777   -0.0495812427   -0.0627121004
   0.0000861456    0.0000652347   -0.0035190411
   0.0000730606    0.0000355365   -0.0035042778
  -0.0000457419    0.0001161858   -0.0035180319
  -0.0000664969    0.0000151089   -0.0035407506
   0.0000456718   -0.0000094912   -0.0035060499
   0.0002979550    0.0000997439   -0.0035067438
   0.0000461278   -0.0000136957   -0.0035164256
  -0.0000468749    0.0000390280   -0.0035756096
   0.0002810050    0.0001249985   -0.0027587401
  -0.0001004834   -0.0000351848   -0.0034652660
  -0.0000607450    0.0000071999   -0.0035065140
   0.0000944412    0.0000876695   -0.0035115536
  -0.0000094902    0.0000074856   -0.0034948784
   0.0000362416   -0.0000346843   -0.0034944453
   0.0001499149    0.0001137464   -0.0034594273
   0.0000367971   -0.0000313860   -0.0034995644
  -0.0000090062    0.0000031300   -0.0034978098
   0.0002765190    0.0001384050   -0.0027668026
  -0.0000426739    0.0001361993   -0.0034472586
  -0.0000568027    0.0000489220   -0.0035259667
   0.0001216323   -0.0000412562   -0.0034417987
   0.0000094079    0.0000219254   -0.0034769838
   0.0000425586   -0.0000173669   -0.0034966786
   0.0000275462   -0.0000556223   -0.0035315499
   0.0000389755   -0.0000150439   -0.0034974052
   0.0000011671    0.0000168188   -0.0035149966
   0.0010645184    0.0000809720    0.0060238038
   0.0000199101    0.0000126138    0.0035024729
  -0.0002333765   -0.0013283017    0.0039122045
   0.0017691860    0.0006803097    0.0047251105
   0.0000198151    0.0000151722    0.0034985318
   0.0005218982    0.0006091590    0.0026737256
  -0.0000390210   -0.0000611593    0.0034970357
  -0.0000140768   -0.0000071090    0.0035027821
  -0.0000377072   -0.0000565822    0.0035042828
   0.0001015687   -0.0000143627    0.0034496033
   0.0000047458    0.0000110757    0.0034976135
   0.0001096383    0.0000422597    0.0034396176
   0.0001124342    0.0000396499    0.0034732083
   0.0000029410    0.0000055880    0.0034859907
   0.0000722806    0.0000173728    0.0034524052
  -0.0000418585   -0.0000407075    0.0034861984
  -0.0000117783   -0.0000076581    0.0034977820
  -0.0000403147   -0.0000354747    0.0034981072
  -0.0001746783    0.0002607155    0.0035776328
   0.0000126926    0.0000083948    0.0034996112
  -0.0002497290   -0.0002833992    0.0035115137
   0.0002424198    0.0001538261    0.0034967091
   0.0000109115    0.0000151237    0.0034999828
   0.0002607632   -0.0001172186    0.0034392950
  -0.0000319747   -0.0000551379    0.0034998880
  -0.0000110074   -0.0000085825    0.0034996897
  -0.0000361843   -0.0000543553    0.0034994813
   0.0516411576    0.0458590301    0.0565019593
   0.0005263684    0.0005571667   -0.0002782428
   0.0003825237    0.0006223405   -0.0002447798
   0.0004103006    0.0004894995   -0.0003089277
   0.0004061834    0.0005207496   -0.0003028505
   0.0005175816    0.0005086874   -0.0002883985
   0.0005738054    0.0002668475   -0.0003523008
   0.0005212193    0.0004562593   -0.0003062744
   0.0005734928    0.0005231434   -0.0002183428
   0.0005015800    0.0008197087   -0.0004245752
   0.0005048208    0.0005441791   -0.0002615190
   0.0004636606    0.0005828247   -0.0003519917
   0.0004300171    0.0005350220   -0.0003531138
   0.0004389027    0.0005379365   -0.0003011203
   0.0004558158    0.0005224796   -0.0003030324
   0.0006794769    0.0000666276   -0.0000986935
   0.0004975347    0.0004752492   -0.0002765318
   0.0004688394    0.0004455214   -0.0002730170
   0.0010388296    0.0007807201   -0.0018569934
   0.0005332869    0.0005347061   -0.0002796825
   0.0003761451    0.0005521890   -0.0003429029
   0.0004418347    0.0005006141   -0.0003024673
   0.0004381066    0.0005280362   -0.0003102198
   0.0005139548    0.0005074925   -0.0002799701
   0.0005194258    0.0003505270   -0.0004102344
   0.0005101422    0.0004558521   -0.0002996523
   0.0004817843    0.0004935827   -0.0003120417
  -0.0006448498   -0.0003596787   -0.0003691120
  -0.0004135662   -0.0004392223   -0.0003226788
   0.0140780330    0.0079272233    0.0010926646
  -0.0004403910   -0.0004745554   -0.0002397900
  -0.0004549020   -0.0005463218   -0.0002681877
  -0.0004218819   -0.0007509970   -0.0002592249
  -0.0004971222   -0.0004540424   -0.0002861629
  -0.0005669456   -0.0004357908   -0.0002503695
  -0.0005975842   -0.0004365846   -0.0002911416
  -0.0003190793   -0.0005174237   -0.0002143415
  -0.0004831134   -0.0004498628   -0.0003246924
  -0.0002680188    0.0000638422   -0.0009955768
  -0.0005091110   -0.0005120233   -0.0002661025
  -0.0005002901   -0.0005037914   -0.0003089382
  -0.0004567871   -0.0007015127   -0.0004891608
  -0.0005160603   -0.0004675696   -0.0002654935
  -0.0005670943   -0.0004518032   -0.0002762298
  -0.0005846260   -0.0004376048   -0.0002389911
  -0.0006872451   -0.0004041772   -0.0000350500
  -0.0004807732   -0.0004403276   -0.0002837049
   0.0004926110    0.0002545851   -0.0003056398
  -0.0004869337   -0.0004747244   -0.0002678030
  -0.0004890660   -0.0005190103   -0.0002753758
  -0.0004508793   -0.0006965601    0.0000375921
  -0.0004785018   -0.0004770720   -0.0002969478
  -0.0005607616   -0.0004569585   -0.0002834414
  -0.0005626538   -0.0004840706   -0.0002663963
  -0.0003923570   -0.0001861220    0.0002520723
   0.0005159878   -0.0004697618    0.0003000707
   0.0007353174   -0.0017380373    0.0005188184
   0.0004945073   -0.0005798479    0.0002637579
   0.0005480106   -0.0005012655    0.0002762811
   0.0005191372   -0.0005762543    0.0002682250
   0.0004680826   -0.0002509055   -0.0001543110
   0.0005075244   -0.0004670385    0.0002990823
   0.0002028879   -0.0003058743    0.0003229085
   0.0004629067   -0.0004318940    0.0002350083
   0.0004799605   -0.0005133584    0.0002687988
   0.0005329894   -0.0003593947    0.0002139501
   0.0005087514   -0.0005590571    0.0002428078
   0.0005448998   -0.0004961247    0.0002849202
   0.0005829637   -0.0005340557    0.0002683118
   0.0005397198   -0.0005103491    0.0004967535
   0.0005364765   -0.0004574654    0.0002820153
   0.0004341923   -0.0005278523    0.0003893517
   0.0002972461   -0.0004891387    0.0005810096
   0.0005056751   -0.0004837902    0.0003145136
   0.0007730593   -0.0005398040    0.0008449501
   0.0005031750   -0.0005583711    0.0002952817
   0.0005394017   -0.0004957861    0.0002860044
   0.0004943777   -0.0005643013    0.0002875764
   0.0007054563   -0.0006035010    0.0001930994
   0.0004917885   -0.0004738301    0.0002906758