calculator: aims
length_unit: angstrom
nqpoint: 510    
npath: 10     
segment_nqpoint:
- 51
- 51
- 51
- 51
- 51
- 51
- 51
- 51
- 51
- 51
labels:
- [ 'G', 'X' ]
- [ 'X', 'W' ]
- [ 'W', 'K' ]
- [ 'K', 'G' ]
- [ 'G', 'L' ]
- [ 'L', 'U' ]
- [ 'U', 'W' ]
- [ 'W', 'L' ]
- [ 'L', 'K:' ]
- [ 'U', 'X' ]
reciprocal_lattice:
- [   0.27587024,  -0.15927376,   0.00000000 ] # a*
- [   0.27587024,   0.15927376,   0.00000000 ] # b*
- [   0.00000000,   0.00000000,   0.17027247 ] # c*
natom: 3      
lattice:
- [     1.812446290000000,    -3.139249060000000,     0.000000000000000 ] # a
- [     1.812446290000000,     3.139249060000000,     0.000000000000000 ] # b
- [     0.000000000000000,     0.000000000000000,     5.872939960000000 ] # c
points:
- symbol: Zr # 1
  coordinates: [  0.000000000000000,  0.000000000000000,  0.000000000000000 ]
  mass: 91.224000
- symbol: S  # 2
  coordinates: [  0.333333330000000,  0.666666660000000,  0.247803260000000 ]
  mass: 32.065000
- symbol: S  # 3
  coordinates: [  0.666666660000000,  0.333333330000000,  0.752196740000000 ]
  mass: 32.065000

phonon:
- q-position: [    0.0000000,    0.0000000,    0.0000000 ]
  distance:    0.0000000
  band:
  - # 1
    frequency:   -0.0000001291
  - # 2
    frequency:   -0.0000000992
  - # 3
    frequency:   -0.0000000948
  - # 4
    frequency:    4.7676586094
  - # 5
    frequency:    4.7676586095
  - # 6
    frequency:    7.4987003450
  - # 7
    frequency:    7.4987003456
  - # 8
    frequency:    9.3953356377
  - # 9
    frequency:    9.7355291619

- q-position: [    0.0100000,    0.0000000,    0.0100000 ]
  distance:    0.0036120
  band:
  - # 1
    frequency:    0.0792410581
  - # 2
    frequency:    0.1129682453
  - # 3
    frequency:    0.1473130644
  - # 4
    frequency:    4.7697165699
  - # 5
    frequency:    4.7805310011
  - # 6
    frequency:    7.4981566189
  - # 7
    frequency:    7.4989218248
  - # 8
    frequency:    9.3949637658
  - # 9
    frequency:    9.7346436631

- q-position: [    0.0200000,    0.0000000,    0.0200000 ]
  distance:    0.0072240
  band:
  - # 1
    frequency:    0.1582963988
  - # 2
    frequency:    0.2257116856
  - # 3
    frequency:    0.2947310240
  - # 4
    frequency:    4.7758715837
  - # 5
    frequency:    4.8188354599
  - # 6
    frequency:    7.4965251092
  - # 7
    frequency:    7.4995864089
  - # 8
    frequency:    9.3938472641
  - # 9
    frequency:    9.7319883306

- q-position: [    0.0300000,    0.0000000,    0.0300000 ]
  distance:    0.0108360
  band:
  - # 1
    frequency:    0.2369877811
  - # 2
    frequency:    0.3380091641
  - # 3
    frequency:    0.4423607281
  - # 4
    frequency:    4.7860672001
  - # 5
    frequency:    4.8816587478
  - # 6
    frequency:    7.4938049738
  - # 7
    frequency:    7.5006944263
  - # 8
    frequency:    9.3919831158
  - # 9
    frequency:    9.7275672509

- q-position: [    0.0400000,    0.0000000,    0.0400000 ]
  distance:    0.0144480
  band:
  - # 1
    frequency:    0.3151504900
  - # 2
    frequency:    0.4496466810
  - # 3
    frequency:    0.5903119891
  - # 4
    frequency:    4.8002098414
  - # 5
    frequency:    4.9675571884
  - # 6
    frequency:    7.4899953015
  - # 7
    frequency:    7.5022460715
  - # 8
    frequency:    9.3893650945
  - # 9
    frequency:    9.7213892178

- q-position: [    0.0500000,    0.0000000,    0.0500000 ]
  distance:    0.0180600
  band:
  - # 1
    frequency:    0.3926370119
  - # 2
    frequency:    0.5604206291
  - # 3
    frequency:    0.7386970192
  - # 4
    frequency:    4.8181695733
  - # 5
    frequency:    5.0746594646
  - # 6
    frequency:    7.4850958402
  - # 7
    frequency:    7.5042409011
  - # 8
    frequency:    9.3859819720
  - # 9
    frequency:    9.7134707167

- q-position: [    0.0600000,    0.0000000,    0.0600000 ]
  distance:    0.0216720
  band:
  - # 1
    frequency:    0.4693181097
  - # 2
    frequency:    0.6701406352
  - # 3
    frequency:    0.8876281543
  - # 4
    frequency:    4.8397811990
  - # 5
    frequency:    5.2007856593
  - # 6
    frequency:    7.4791079942
  - # 7
    frequency:    7.5066771770
  - # 8
    frequency:    9.3818150098
  - # 9
    frequency:    9.7038401298

- q-position: [    0.0700000,    0.0000000,    0.0700000 ]
  distance:    0.0252840
  band:
  - # 1
    frequency:    0.5450817043
  - # 2
    frequency:    0.7786319050
  - # 3
    frequency:    1.0372141596
  - # 4
    frequency:    4.8648456852
  - # 5
    frequency:    5.3435664003
  - # 6
    frequency:    7.4720360691
  - # 7
    frequency:    7.5095511102
  - # 8
    frequency:    9.3768347313
  - # 9
    frequency:    9.6925431975

- q-position: [    0.0800000,    0.0000000,    0.0800000 ]
  distance:    0.0288960
  band:
  - # 1
    frequency:    0.6198303084
  - # 2
    frequency:    0.8857369909
  - # 3
    frequency:    1.1875556521
  - # 4
    frequency:    4.8931319238
  - # 5
    frequency:    5.5005496110
  - # 6
    frequency:    7.4638887367
  - # 7
    frequency:    7.5128560727
  - # 8
    frequency:    9.3709969654
  - # 9
    frequency:    9.6796497872

- q-position: [    0.0900000,    0.0000000,    0.0900000 ]
  distance:    0.0325080
  band:
  - # 1
    frequency:    0.6934777842
  - # 2
    frequency:    0.9913169312
  - # 3
    frequency:    1.3387402063
  - # 4
    frequency:    4.9243788209
  - # 5
    frequency:    5.6692874226
  - # 6
    frequency:    7.4546806892
  - # 7
    frequency:    7.5165818716
  - # 8
    frequency:    9.3642381912
  - # 9
    frequency:    9.6652619982

- q-position: [    0.1000000,    0.0000000,    0.1000000 ]
  distance:    0.0361200
  band:
  - # 1
    frequency:    0.7659460097
  - # 2
    frequency:    1.0952517369
  - # 3
    frequency:    1.4908375880
  - # 4
    frequency:    4.9582976941
  - # 5
    frequency:    5.8474005754
  - # 6
    frequency:    7.4444344446
  - # 7
    frequency:    7.5207142191
  - # 8
    frequency:    9.3564703303
  - # 9
    frequency:    9.6495235406

- q-position: [    0.1100000,    0.0000000,    0.1100000 ]
  distance:    0.0397320
  band:
  - # 1
    frequency:    0.8371617931
  - # 2
    frequency:    1.1974402348
  - # 3
    frequency:    1.6438953890
  - # 4
    frequency:    4.9945749419
  - # 5
    frequency:    6.0326210863
  - # 6
    frequency:    7.4331822605
  - # 7
    frequency:    7.5252346094
  - # 8
    frequency:    9.3475754265
  - # 9
    frequency:    9.6326300594

- q-position: [    0.1200000,    0.0000000,    0.1200000 ]
  distance:    0.0433440
  band:
  - # 1
    frequency:    0.9070541653
  - # 2
    frequency:    1.2977993030
  - # 3
    frequency:    1.7979351788
  - # 4
    frequency:    5.0328749408
  - # 5
    frequency:    6.2228157791
  - # 6
    frequency:    7.4209681092
  - # 7
    frequency:    7.5301209855
  - # 8
    frequency:    9.3374012620
  - # 9
    frequency:    9.6148395240

- q-position: [    0.1300000,    0.0000000,    0.1300000 ]
  distance:    0.0469560
  band:
  - # 1
    frequency:    0.9755520500
  - # 2
    frequency:    1.3962625614
  - # 3
    frequency:    1.9529491833
  - # 4
    frequency:    5.0728431118
  - # 5
    frequency:    6.4159935328
  - # 6
    frequency:    7.4078496565
  - # 7
    frequency:    7.5353499995
  - # 8
    frequency:    9.3257600067
  - # 9
    frequency:    9.5964808261

- q-position: [    0.1400000,    0.0000000,    0.1400000 ]
  distance:    0.0505680
  band:
  - # 1
    frequency:    1.0425822549
  - # 2
    frequency:    1.4927786028
  - # 3
    frequency:    2.1088974448
  - # 4
    frequency:    5.1141091019
  - # 5
    frequency:    6.6102977189
  - # 6
    frequency:    7.3939001804
  - # 7
    frequency:    7.5409028222
  - # 8
    frequency:    9.3124334651
  - # 9
    frequency:    9.5779573839

- q-position: [    0.1500000,    0.0000000,    0.1500000 ]
  distance:    0.0541800
  band:
  - # 1
    frequency:    1.1080677288
  - # 2
    frequency:    1.5873088610
  - # 3
    frequency:    2.2657054007
  - # 4
    frequency:    5.1562900310
  - # 5
    frequency:    6.8039809161
  - # 6
    frequency:    7.3792103501
  - # 7
    frequency:    7.5467801003
  - # 8
    frequency:    9.2971898178
  - # 9
    frequency:    9.5597413957

- q-position: [    0.1600000,    0.0000000,    0.1600000 ]
  distance:    0.0577920
  band:
  - # 1
    frequency:    1.1719260488
  - # 2
    frequency:    1.6798252241
  - # 3
    frequency:    2.4232618220
  - # 4
    frequency:    5.1989937721
  - # 5
    frequency:    6.9953440850
  - # 6
    frequency:    7.3638897708
  - # 7
    frequency:    7.5530455592
  - # 8
    frequency:    9.2798165160
  - # 9
    frequency:    9.5423549100

- q-position: [    0.1700000,    0.0000000,    0.1700000 ]
  distance:    0.0614040
  band:
  - # 1
    frequency:    1.2340681407
  - # 2
    frequency:    1.7703075024
  - # 3
    frequency:    2.5814170686
  - # 4
    frequency:    5.2418222643
  - # 5
    frequency:    7.1825509953
  - # 6
    frequency:    7.3480681789
  - # 7
    frequency:    7.5599880053
  - # 8
    frequency:    9.2601702447
  - # 9
    frequency:    9.5263380527

- q-position: [    0.1800000,    0.0000000,    0.1800000 ]
  distance:    0.0650159
  band:
  - # 1
    frequency:    1.2943972617
  - # 2
    frequency:    1.8587408533
  - # 3
    frequency:    2.7399816345
  - # 4
    frequency:    5.2843748952
  - # 5
    frequency:    7.3318961456
  - # 6
    frequency:    7.3626569286
  - # 7
    frequency:    7.5690619954
  - # 8
    frequency:    9.2382374743
  - # 9
    frequency:    9.5122128101

- q-position: [    0.1900000,    0.0000000,    0.1900000 ]
  distance:    0.0686279
  band:
  - # 1
    frequency:    1.3528082978
  - # 2
    frequency:    1.9451132610
  - # 3
    frequency:    2.8987249742
  - # 4
    frequency:    5.3262520361
  - # 5
    frequency:    7.3155451192
  - # 6
    frequency:    7.5176924841
  - # 7
    frequency:    7.5967641730
  - # 8
    frequency:    9.2141926326
  - # 9
    frequency:    9.5004582446

- q-position: [    0.2000000,    0.0000000,    0.2000000 ]
  distance:    0.0722399
  band:
  - # 1
    frequency:    1.4091874395
  - # 2
    frequency:    2.0294131536
  - # 3
    frequency:    3.0573746135
  - # 4
    frequency:    5.3670588641
  - # 5
    frequency:    7.2992066068
  - # 6
    frequency:    7.5630875056
  - # 7
    frequency:    7.7261563557
  - # 8
    frequency:    9.1884429371
  - # 9
    frequency:    9.4915124014

- q-position: [    0.2100000,    0.0000000,    0.2100000 ]
  distance:    0.0758519
  band:
  - # 1
    frequency:    1.4634123051
  - # 2
    frequency:    2.1116272287
  - # 3
    frequency:    3.2156155687
  - # 4
    frequency:    5.4064096448
  - # 5
    frequency:    7.2830902761
  - # 6
    frequency:    7.5728868121
  - # 7
    frequency:    7.8815778963
  - # 8
    frequency:    9.1616615801
  - # 9
    frequency:    9.4858051459

- q-position: [    0.2200000,    0.0000000,    0.2200000 ]
  distance:    0.0794639
  band:
  - # 1
    frequency:    1.5153525723
  - # 2
    frequency:    2.1917385448
  - # 3
    frequency:    3.3730901111
  - # 4
    frequency:    5.4439326800
  - # 5
    frequency:    7.2674207485
  - # 6
    frequency:    7.5791612442
  - # 7
    frequency:    8.0291370334
  - # 8
    frequency:    9.1348258018
  - # 9
    frequency:    9.4838121491

- q-position: [    0.2300000,    0.0000000,    0.2300000 ]
  distance:    0.0830759
  band:
  - # 1
    frequency:    1.5648711775
  - # 2
    frequency:    2.2697249214
  - # 3
    frequency:    3.5293979420
  - # 4
    frequency:    5.4792761149
  - # 5
    frequency:    7.2524328852
  - # 6
    frequency:    7.5842116226
  - # 7
    frequency:    8.1643810444
  - # 8
    frequency:    9.1092806100
  - # 9
    frequency:    9.4861117042

- q-position: [    0.2400000,    0.0000000,    0.2400000 ]
  distance:    0.0866879
  band:
  - # 1
    frequency:    1.6118261204
  - # 2
    frequency:    2.3455576811
  - # 3
    frequency:    3.6840968709
  - # 4
    frequency:    5.5121147435
  - # 5
    frequency:    7.2383654344
  - # 6
    frequency:    7.5884501870
  - # 7
    frequency:    8.2842812541
  - # 8
    frequency:    9.0868293992
  - # 9
    frequency:    9.4934222697

- q-position: [    0.2500000,    0.0000000,    0.2500000 ]
  distance:    0.0902999
  band:
  - # 1
    frequency:    1.6560729048
  - # 2
    frequency:    2.4192007556
  - # 3
    frequency:    3.8367041323
  - # 4
    frequency:    5.5421578294
  - # 5
    frequency:    7.2254530476
  - # 6
    frequency:    7.5919812768
  - # 7
    frequency:    8.3856091990
  - # 8
    frequency:    9.0697817533
  - # 9
    frequency:    9.5065920922

- q-position: [    0.2600000,    0.0000000,    0.2600000 ]
  distance:    0.0939119
  band:
  - # 1
    frequency:    1.6974676215
  - # 2
    frequency:    2.4906101699
  - # 3
    frequency:    3.9866985302
  - # 4
    frequency:    5.5691577624
  - # 5
    frequency:    7.2139168753
  - # 6
    frequency:    7.5948369822
  - # 7
    frequency:    8.4650217257
  - # 8
    frequency:    9.0607239999
  - # 9
    frequency:    9.5265014833

- q-position: [    0.2700000,    0.0000000,    0.2700000 ]
  distance:    0.0975239
  band:
  - # 1
    frequency:    1.7358706651
  - # 2
    frequency:    2.5597339107
  - # 3
    frequency:    4.1335236612
  - # 4
    frequency:    5.5929191137
  - # 5
    frequency:    7.2039542176
  - # 6
    frequency:    7.5970393870
  - # 7
    frequency:    8.5200949846
  - # 8
    frequency:    9.0616364563
  - # 9
    frequency:    9.5538418087

- q-position: [    0.2800000,    0.0000000,    0.2800000 ]
  distance:    0.1011359
  band:
  - # 1
    frequency:    1.7711510502
  - # 2
    frequency:    2.6265121802
  - # 3
    frequency:    4.2765925429
  - # 4
    frequency:    5.6133073751
  - # 5
    frequency:    7.1957279884
  - # 6
    frequency:    7.5986243870
  - # 7
    frequency:    8.5510092529
  - # 8
    frequency:    9.0724990269
  - # 9
    frequency:    9.5887921536

- q-position: [    0.2900000,    0.0000000,    0.2900000 ]
  distance:    0.1047479
  band:
  - # 1
    frequency:    1.8031912701
  - # 2
    frequency:    2.6908780286
  - # 3
    frequency:    4.4152940467
  - # 4
    frequency:    5.6302564312
  - # 5
    frequency:    7.1893569900
  - # 6
    frequency:    7.5996535600
  - # 7
    frequency:    8.5612699227
  - # 8
    frequency:    9.0908344544
  - # 9
    frequency:    9.6307320323

- q-position: [    0.3000000,    0.0000000,    0.3000000 ]
  distance:    0.1083599
  band:
  - # 1
    frequency:    1.8318926124
  - # 2
    frequency:    2.7527583503
  - # 3
    frequency:    4.5490015920
  - # 4
    frequency:    5.6437737100
  - # 5
    frequency:    7.1849081016
  - # 6
    frequency:    7.6002207227
  - # 7
    frequency:    8.5562690496
  - # 8
    frequency:    9.1131736105
  - # 9
    frequency:    9.6781941862

- q-position: [    0.3100000,    0.0000000,    0.3100000 ]
  distance:    0.1119719
  band:
  - # 1
    frequency:    1.8571808129
  - # 2
    frequency:    2.8120752233
  - # 3
    frequency:    4.6770845804
  - # 4
    frequency:    5.6539420525
  - # 5
    frequency:    7.1823913940
  - # 6
    frequency:    7.6004547508
  - # 7
    frequency:    8.5411829744
  - # 8
    frequency:    9.1368720314
  - # 9
    frequency:    9.7291306509

- q-position: [    0.3200000,    0.0000000,    0.3200000 ]
  distance:    0.1155839
  band:
  - # 1
    frequency:    1.8790118937
  - # 2
    frequency:    2.8687475562
  - # 3
    frequency:    4.7989229823
  - # 4
    frequency:    5.6609176621
  - # 5
    frequency:    7.1817588688
  - # 6
    frequency:    7.6005186448
  - # 7
    frequency:    8.5199549226
  - # 8
    frequency:    9.1606861113
  - # 9
    frequency:    9.7813343652

- q-position: [    0.3300000,    0.0000000,    0.3300000 ]
  distance:    0.1191959
  band:
  - # 1
    frequency:    1.8973779898
  - # 2
    frequency:    2.9226929965
  - # 3
    frequency:    4.9139253026
  - # 4
    frequency:    5.6649239893
  - # 5
    frequency:    7.1829070301
  - # 6
    frequency:    7.6006043298
  - # 7
    frequency:    8.4952904428
  - # 8
    frequency:    9.1844072510
  - # 9
    frequency:    9.8327904753

- q-position: [    0.3400000,    0.0000000,    0.3400000 ]
  distance:    0.1228079
  band:
  - # 1
    frequency:    1.9123129284
  - # 2
    frequency:    2.9738300374
  - # 3
    frequency:    5.0215497830
  - # 4
    frequency:    5.6662419684
  - # 5
    frequency:    7.1856829497
  - # 6
    frequency:    7.6009227393
  - # 7
    frequency:    8.4689829017
  - # 8
    frequency:    9.2083396515
  - # 9
    frequency:    9.8818550773

- q-position: [    0.3500000,    0.0000000,    0.3500000 ]
  distance:    0.1264199
  band:
  - # 1
    frequency:    1.9238972748
  - # 2
    frequency:    3.0220802417
  - # 3
    frequency:    5.1213281263
  - # 4
    frequency:    5.6651975018
  - # 5
    frequency:    7.1898930165
  - # 6
    frequency:    7.6016891997
  - # 7
    frequency:    8.4422181283
  - # 8
    frequency:    9.2329450899
  - # 9
    frequency:    9.9272897642

- q-position: [    0.3600000,    0.0000000,    0.3600000 ]
  distance:    0.1300319
  band:
  - # 1
    frequency:    1.9322625211
  - # 2
    frequency:    3.0673704827
  - # 3
    frequency:    5.2128902705
  - # 4
    frequency:    5.6621473844
  - # 5
    frequency:    7.1953132813
  - # 6
    frequency:    7.6031049118
  - # 7
    frequency:    8.4157858139
  - # 8
    frequency:    9.2586587130
  - # 9
    frequency:    9.9682211285

- q-position: [    0.3700000,    0.0000000,    0.3700000 ]
  distance:    0.1336439
  band:
  - # 1
    frequency:    1.9375940510
  - # 2
    frequency:    3.1096350861
  - # 3
    frequency:    5.2959879137
  - # 4
    frequency:    5.6574649171
  - # 5
    frequency:    7.2017002645
  - # 6
    frequency:    7.6053362812
  - # 7
    frequency:    8.3902147177
  - # 8
    frequency:    9.2858070788
  - # 9
    frequency:   10.0040776354

- q-position: [    0.3800000,    0.0000000,    0.3800000 ]
  distance:    0.1372559
  band:
  - # 1
    frequency:    1.9401324911
  - # 2
    frequency:    3.1488177401
  - # 3
    frequency:    5.3705138084
  - # 4
    frequency:    5.6515263136
  - # 5
    frequency:    7.2088012500
  - # 6
    frequency:    7.6084947097
  - # 7
    frequency:    8.3658589494
  - # 8
    frequency:    9.3145753596
  - # 9
    frequency:   10.0345302029

- q-position: [    0.3900000,    0.0000000,    0.3900000 ]
  distance:    0.1408679
  band:
  - # 1
    frequency:    1.9401730474
  - # 2
    frequency:    3.1848730369
  - # 3
    frequency:    5.4365135893
  - # 4
    frequency:    5.6446987290
  - # 5
    frequency:    7.2163633720
  - # 6
    frequency:    7.6126199165
  - # 7
    frequency:    8.3429549454
  - # 8
    frequency:    9.3449950976
  - # 9
    frequency:   10.0594458106

- q-position: [    0.4000000,    0.0000000,    0.4000000 ]
  distance:    0.1444799
  band:
  - # 1
    frequency:    1.9380624461
  - # 2
    frequency:    3.2177675123
  - # 3
    frequency:    5.4941873305
  - # 4
    frequency:    5.6373304188
  - # 5
    frequency:    7.2241411138
  - # 6
    frequency:    7.6176696460
  - # 7
    frequency:    8.3216608837
  - # 8
    frequency:    9.3769393953
  - # 9
    frequency:   10.0788555965

- q-position: [    0.4100000,    0.0000000,    0.4100000 ]
  distance:    0.1480919
  band:
  - # 1
    frequency:    1.9341931523
  - # 2
    frequency:    3.2474800678
  - # 3
    frequency:    5.5438792241
  - # 4
    frequency:    5.6297432457
  - # 5
    frequency:    7.2319021189
  - # 6
    frequency:    7.6235176702
  - # 7
    frequency:    8.3020850604
  - # 8
    frequency:    9.4101200109
  - # 9
    frequency:   10.0929362837

- q-position: [    0.4200000,    0.0000000,    0.4200000 ]
  distance:    0.1517039
  band:
  - # 1
    frequency:    1.9289946440
  - # 2
    frequency:    3.2740016934
  - # 3
    frequency:    5.5860555250
  - # 4
    frequency:    5.6222275133
  - # 5
    frequency:    7.2394314142
  - # 6
    frequency:    7.6299605237
  - # 7
    frequency:    8.2843066963
  - # 8
    frequency:    9.4440839104
  - # 9
    frequency:   10.1020034202

- q-position: [    0.4300000,    0.0000000,    0.4300000 ]
  distance:    0.1553159
  band:
  - # 1
    frequency:    1.9229216772
  - # 2
    frequency:    3.2973344595
  - # 3
    frequency:    5.6150389423
  - # 4
    frequency:    5.6212727679
  - # 5
    frequency:    7.2465342700
  - # 6
    frequency:    7.6367318722
  - # 7
    frequency:    8.2683909550
  - # 8
    frequency:    9.4782078807
  - # 9
    frequency:   10.1065151993

- q-position: [    0.4400000,    0.0000000,    0.4400000 ]
  distance:    0.1589279
  band:
  - # 1
    frequency:    1.9164396949
  - # 2
    frequency:    3.3174898058
  - # 3
    frequency:    5.6083974933
  - # 4
    frequency:    5.6501396875
  - # 5
    frequency:    7.2530379703
  - # 6
    frequency:    7.6435222973
  - # 7
    frequency:    8.2543990587
  - # 8
    frequency:    9.5116904813
  - # 9
    frequency:   10.1070854899

- q-position: [    0.4500000,    0.0000000,    0.4500000 ]
  distance:    0.1625399
  band:
  - # 1
    frequency:    1.9100078070
  - # 2
    frequency:    3.3344862248
  - # 3
    frequency:    5.6024876760
  - # 4
    frequency:    5.6732768787
  - # 5
    frequency:    7.2587927716
  - # 6
    frequency:    7.6500018938
  - # 7
    frequency:    8.2423939511
  - # 8
    frequency:    9.5435425104
  - # 9
    frequency:   10.1045029899

- q-position: [    0.4600000,    0.0000000,    0.4600000 ]
  distance:    0.1661519
  band:
  - # 1
    frequency:    1.9040600724
  - # 2
    frequency:    3.3483465041
  - # 3
    frequency:    5.5974599490
  - # 4
    frequency:    5.6912779669
  - # 5
    frequency:    7.2636722964
  - # 6
    frequency:    7.6558433556
  - # 7
    frequency:    8.2324418265
  - # 8
    frequency:    9.5725824342
  - # 9
    frequency:   10.0997482182

- q-position: [    0.4700000,    0.0000000,    0.4700000 ]
  distance:    0.1697639
  band:
  - # 1
    frequency:    1.8989861212
  - # 2
    frequency:    3.3590947456
  - # 3
    frequency:    5.5934328014
  - # 4
    frequency:    5.7046751456
  - # 5
    frequency:    7.2675735697
  - # 6
    frequency:    7.6607438821
  - # 7
    frequency:    8.2246099599
  - # 8
    frequency:    9.5974544082
  - # 9
    frequency:   10.0939889923

- q-position: [    0.4800000,    0.0000000,    0.4800000 ]
  distance:    0.1733759
  band:
  - # 1
    frequency:    1.8951124144
  - # 2
    frequency:    3.3667534191
  - # 3
    frequency:    5.5904951188
  - # 4
    frequency:    5.7139107818
  - # 5
    frequency:    7.2704168608
  - # 6
    frequency:    7.6644448370
  - # 7
    frequency:    8.2189616088
  - # 8
    frequency:    9.6167030069
  - # 9
    frequency:   10.0885187566

- q-position: [    0.4900000,    0.0000000,    0.4900000 ]
  distance:    0.1769879
  band:
  - # 1
    frequency:    1.8926855780
  - # 2
    frequency:    3.3713407154
  - # 3
    frequency:    5.5887084620
  - # 4
    frequency:    5.7193157418
  - # 5
    frequency:    7.2721454508
  - # 6
    frequency:    7.6667483875
  - # 7
    frequency:    8.2155492326
  - # 8
    frequency:    9.6289467206
  - # 9
    frequency:   10.0845944553

- q-position: [    0.5000000,    0.0000000,    0.5000000 ]
  distance:    0.1805999
  band:
  - # 1
    frequency:    1.8918592392
  - # 2
    frequency:    3.3728684499
  - # 3
    frequency:    5.5881089446
  - # 4
    frequency:    5.7210943713
  - # 5
    frequency:    7.2727254113
  - # 6
    frequency:    7.6675303501
  - # 7
    frequency:    8.2144076942
  - # 8
    frequency:    9.6331565729
  - # 9
    frequency:   10.0831666596

- q-position: [    0.5000000,    0.0000000,    0.5000000 ]
  distance:    0.1805999
  band:
  - # 1
    frequency:    1.8918592392
  - # 2
    frequency:    3.3728684499
  - # 3
    frequency:    5.5881089446
  - # 4
    frequency:    5.7210943713
  - # 5
    frequency:    7.2727254113
  - # 6
    frequency:    7.6675303501
  - # 7
    frequency:    8.2144076942
  - # 8
    frequency:    9.6331565729
  - # 9
    frequency:   10.0831666596

- q-position: [    0.5000000,    0.0050000,    0.5050000 ]
  distance:    0.1824059
  band:
  - # 1
    frequency:    1.8919239119
  - # 2
    frequency:    3.3735539269
  - # 3
    frequency:    5.5891196883
  - # 4
    frequency:    5.7211271991
  - # 5
    frequency:    7.2726701634
  - # 6
    frequency:    7.6673478851
  - # 7
    frequency:    8.2145446580
  - # 8
    frequency:    9.6327170766
  - # 9
    frequency:   10.0829321604

- q-position: [    0.5000000,    0.0100000,    0.5100000 ]
  distance:    0.1842119
  band:
  - # 1
    frequency:    1.8921169556
  - # 2
    frequency:    3.3756058346
  - # 3
    frequency:    5.5921498674
  - # 4
    frequency:    5.7212247085
  - # 5
    frequency:    7.2725044828
  - # 6
    frequency:    7.6668003342
  - # 7
    frequency:    8.2149559878
  - # 8
    frequency:    9.6314018581
  - # 9
    frequency:   10.0822265294

- q-position: [    0.5000000,    0.0150000,    0.5150000 ]
  distance:    0.1860179
  band:
  - # 1
    frequency:    1.8924354611
  - # 2
    frequency:    3.3790106793
  - # 3
    frequency:    5.5971933002
  - # 4
    frequency:    5.7213839872
  - # 5
    frequency:    7.2722285572
  - # 6
    frequency:    7.6658872365
  - # 7
    frequency:    8.2156430065
  - # 8
    frequency:    9.6292206612
  - # 9
    frequency:   10.0810434317

- q-position: [    0.5000000,    0.0200000,    0.5200000 ]
  distance:    0.1878239
  band:
  - # 1
    frequency:    1.8928746248
  - # 2
    frequency:    3.3837462235
  - # 3
    frequency:    5.6042395945
  - # 4
    frequency:    5.7216002149
  - # 5
    frequency:    7.2718426940
  - # 6
    frequency:    7.6646078498
  - # 7
    frequency:    8.2166079408
  - # 8
    frequency:    9.6261895025
  - # 9
    frequency:   10.0793725233

- q-position: [    0.5000000,    0.0250000,    0.5250000 ]
  distance:    0.1896299
  band:
  - # 1
    frequency:    1.8934278152
  - # 2
    frequency:    3.3897818559
  - # 3
    frequency:    5.6132740175
  - # 4
    frequency:    5.7218667140
  - # 5
    frequency:    7.2713473135
  - # 6
    frequency:    7.6629611877
  - # 7
    frequency:    8.2178539541
  - # 8
    frequency:    9.6223303510
  - # 9
    frequency:   10.0771997596

- q-position: [    0.5000000,    0.0300000,    0.5300000 ]
  distance:    0.1914359
  band:
  - # 1
    frequency:    1.8940866631
  - # 2
    frequency:    3.3970790930
  - # 3
    frequency:    5.6242773154
  - # 4
    frequency:    5.7221750246
  - # 5
    frequency:    7.2707429378
  - # 6
    frequency:    7.6609460731
  - # 7
    frequency:    8.2193851921
  - # 8
    frequency:    9.6176707040
  - # 9
    frequency:   10.0745078017

- q-position: [    0.5000000,    0.0350000,    0.5350000 ]
  distance:    0.1932418
  band:
  - # 1
    frequency:    1.8948411742
  - # 2
    frequency:    3.4055921971
  - # 3
    frequency:    5.6372254834
  - # 4
    frequency:    5.7225150111
  - # 5
    frequency:    7.2700301775
  - # 6
    frequency:    7.6585612048
  - # 7
    frequency:    8.2212068382
  - # 8
    frequency:    9.6122430809
  - # 9
    frequency:   10.0712765010

- q-position: [    0.5000000,    0.0400000,    0.5400000 ]
  distance:    0.1950478
  band:
  - # 1
    frequency:    1.8956798603
  - # 2
    frequency:    3.4152688921
  - # 3
    frequency:    5.6520894698
  - # 4
    frequency:    5.7228750228
  - # 5
    frequency:    7.2692097146
  - # 6
    frequency:    7.6558052394
  - # 7
    frequency:    8.2233251803
  - # 8
    frequency:    9.6060844594
  - # 9
    frequency:   10.0674834367

- q-position: [    0.5000000,    0.0450000,    0.5450000 ]
  distance:    0.1968538
  band:
  - # 1
    frequency:    1.8965898864
  - # 2
    frequency:    3.4260511551
  - # 3
    frequency:    5.6688347307
  - # 4
    frequency:    5.7232422035
  - # 5
    frequency:    7.2682822827
  - # 6
    frequency:    7.6526768853
  - # 7
    frequency:    8.2257476848
  - # 8
    frequency:    9.5992356766
  - # 9
    frequency:   10.0631044853

- q-position: [    0.5000000,    0.0500000,    0.5500000 ]
  distance:    0.1986598
  band:
  - # 1
    frequency:    1.8975572323
  - # 2
    frequency:    3.4378760602
  - # 3
    frequency:    5.6874201301
  - # 4
    frequency:    5.7236034632
  - # 5
    frequency:    7.2672486432
  - # 6
    frequency:    7.6491750107
  - # 7
    frequency:    8.2284830774
  - # 8
    frequency:    9.5917408173
  - # 9
    frequency:   10.0581143995

- q-position: [    0.5000000,    0.0550000,    0.5550000 ]
  distance:    0.2004658
  band:
  - # 1
    frequency:    1.8985668633
  - # 2
    frequency:    3.4506766513
  - # 3
    frequency:    5.7077901616
  - # 4
    frequency:    5.7239531490
  - # 5
    frequency:    7.2661095588
  - # 6
    frequency:    7.6452987627
  - # 7
    frequency:    8.2315414273
  - # 8
    frequency:    9.5836466082
  - # 9
    frequency:   10.0524873798

- q-position: [    0.5000000,    0.0600000,    0.5600000 ]
  distance:    0.2022718
  band:
  - # 1
    frequency:    1.8996029104
  - # 2
    frequency:    3.4643828177
  - # 3
    frequency:    5.7241247434
  - # 4
    frequency:    5.7300431720
  - # 5
    frequency:    7.2648657624
  - # 6
    frequency:    7.6410476973
  - # 7
    frequency:    8.2349342329
  - # 8
    frequency:    9.5750018312
  - # 9
    frequency:   10.0461976249

- q-position: [    0.5000000,    0.0650000,    0.5650000 ]
  distance:    0.2040778
  band:
  - # 1
    frequency:    1.9006488554
  - # 2
    frequency:    3.4789221502
  - # 3
    frequency:    5.7244267159
  - # 4
    frequency:    5.7537954742
  - # 5
    frequency:    7.2635179226
  - # 6
    frequency:    7.6364219189
  - # 7
    frequency:    8.2386745048
  - # 8
    frequency:    9.5658567693
  - # 9
    frequency:   10.0392198521
