81   
3    

1    
  0.0026261471973992  -0.0045486203736591   0.0085096065475394
  -0.0305921059    0.0529345974   -0.0698310207
   0.0177909590   -0.0129012734   -0.0110850076
   0.0176746069   -0.0128049082   -0.0109785929
  -0.0175085924   -0.0013656803   -0.0157711309
   0.0099747844   -0.0033817936   -0.0062209471
   0.0003978826   -0.0006564079    0.0005432461
  -0.0175923639   -0.0014125758   -0.0158387777
   0.0003990263   -0.0006828420    0.0005499684
   0.0100230592   -0.0033763556   -0.0061828500
  -0.0002773192    0.0004416556    0.0011229662
   0.0006272562   -0.0007724649    0.0010069706
  -0.0001901116    0.0002385619    0.0002225817
  -0.0000454879    0.0004482872    0.0003791693
   0.0008923581    0.0001665586    0.0008486587
   0.0000858396   -0.0001195877   -0.0000617462
  -0.0006786731   -0.0004376464    0.0007757740
   0.0002475515   -0.0004249545    0.0006008429
  -0.0005550455    0.0002789713    0.0004610016
  -0.0002775970    0.0004380335    0.0011192196
  -0.0001946298    0.0002401412    0.0002234959
   0.0006239980   -0.0007742361    0.0010001992
  -0.0006738151   -0.0004406944    0.0007699589
  -0.0005570104    0.0002816788    0.0004611753
   0.0002473457   -0.0004148937    0.0005948611
  -0.0000413074    0.0004499105    0.0003787691
   0.0000838898   -0.0001255219   -0.0000641047
   0.0008945859    0.0001693722    0.0008486452
   0.0123863686    0.0028172980    0.0229494016
  -0.0011004914   -0.0002424050    0.0053235583
   0.0008369624    0.0015392776    0.0060668231
   0.0020231543    0.0022313600    0.0052431615
  -0.0028716765   -0.0001683696    0.0043851838
   0.0005557352   -0.0015234670    0.0056988566
   0.0019103625   -0.0188106788    0.0331283171
  -0.0030481060    0.0049554581    0.0048179508
  -0.0057985921    0.0012202833    0.0130147860
  -0.0000586803   -0.0001389784    0.0035199716
  -0.0003450828    0.0002812977    0.0034435299
   0.0000102089   -0.0000336124    0.0035610736
   0.0001712377    0.0001291408    0.0034434445
  -0.0001158997    0.0001438017    0.0033259545
   0.0002352362    0.0002060116    0.0035014205
   0.0000857753    0.0002038259    0.0035552293
  -0.0001974032    0.0002482566    0.0033772146
   0.0001505389   -0.0000929413    0.0034847359
   0.0000446687    0.0001520346    0.0033040187
   0.0000149448    0.0000447623    0.0037471137
   0.0000368808    0.0000901009    0.0032403265
   0.0000847421    0.0001028112    0.0038412814
  -0.0000505450    0.0001802187    0.0037667220
   0.0000203665    0.0000229241    0.0034941645
  -0.0000137425   -0.0000062018    0.0035847501
  -0.0001173492    0.0001424625    0.0038040520
  -0.0000245219    0.0001242437    0.0030197472
  -0.0059342721    0.0010826449    0.0057322066
  -0.0030665401    0.0047889471   -0.0026715312
   0.0019600141   -0.0174712184    0.0246827100
   0.0005329491   -0.0016999186   -0.0018009038
  -0.0028768762   -0.0003649348   -0.0031083300
   0.0020455426    0.0020565909   -0.0022269428
   0.0008316693    0.0013847764   -0.0014038611
  -0.0011107717   -0.0004057523   -0.0021890259
   0.0120839494    0.0023702580    0.0153140881
  -0.0000208869   -0.0000655352   -0.0044614194
  -0.0001176350   -0.0000435953   -0.0036894102
  -0.0000137145   -0.0001908977   -0.0039010428
   0.0000196971   -0.0001630393   -0.0040031322
  -0.0000515004   -0.0000053246   -0.0037233093
   0.0000854144   -0.0000835447   -0.0036529938
   0.0000363703   -0.0000946184   -0.0042623744
   0.0000148772   -0.0001417277   -0.0037466090
   0.0000427556   -0.0000367718   -0.0041829210
   0.0001509979   -0.0002785686   -0.0040077627
  -0.0001951630    0.0000608453   -0.0041148099
   0.0000857363    0.0000195956   -0.0039377623
   0.0002350131    0.0000205001   -0.0039907348
  -0.0001162241   -0.0000444638   -0.0041671951
   0.0001695443   -0.0000578483   -0.0040489974
   0.0000099088   -0.0002214869   -0.0039323542
  -0.0003452215    0.0000952086   -0.0040488461
  -0.0000598106   -0.0003249672   -0.0039728507

28   
  0.0026261471973992  -0.0045486203736591   0.0085096065475394
   0.0175012225    0.0055674897    0.0190312522
   0.0008362267    0.0004037372    0.0017994264
  -0.0020063883    0.0002073959    0.0021249926
   0.0019858305   -0.0236154992    0.0249877301
  -0.0113774919    0.0043422987    0.0129049383
  -0.0035709207    0.0045604646    0.0010695894
   0.0025503800    0.0018289734    0.0011788365
   0.0014443482   -0.0010886616    0.0019626432
  -0.0028712974    0.0003269901    0.0009237362
   0.0004431674    0.0002858188   -0.0004242808
   0.0000358402    0.0004654628   -0.0002738701
   0.0004190002   -0.0002903500   -0.0002533263
  -0.0000132540   -0.0005467465   -0.0003853473
  -0.0004210162    0.0002615591   -0.0004537616
  -0.0001099863    0.0000539345    0.0000611483
   0.0000778334    0.0000093330    0.0001033746
  -0.0003841591   -0.0003151644   -0.0002621663
  -0.0000500033    0.0000731087    0.0000043569
   0.0001408290   -0.0001003988   -0.0002052537
   0.0000085566    0.0000199957   -0.0000888787
  -0.0002100720    0.0001048386   -0.0003863410
   0.0000845493   -0.0001117230   -0.0002970077
  -0.0000517249   -0.0000594829   -0.0001237583
  -0.0002085969    0.0001697353   -0.0003234306
   0.0001869380    0.0000712240   -0.0002454216
   0.0001022136    0.0000108455   -0.0002423328
  -0.0001109629    0.0001038807   -0.0003595638
  -0.0177299316    0.0304650350   -0.0722390180
   0.0015314380   -0.0048690009    0.0025101441
   0.0026527757   -0.0032266852    0.0030589700
  -0.0021722950   -0.0017326545    0.0030538459
   0.0035007239    0.0015747615    0.0025149206
   0.0001414519   -0.0001498193    0.0034576775
  -0.0010429922   -0.0015631396    0.0027797428
   0.0001426120   -0.0001530359    0.0034596853
   0.0011331600    0.0006744283    0.0027897085
   0.0000012152    0.0000915088    0.0037584202
   0.0001542335   -0.0000998419    0.0038967668
  -0.0000374649    0.0002996749    0.0038976021
   0.0000461500    0.0003109862    0.0038773973
   0.0002301551    0.0000542121    0.0039170622
   0.0000186874    0.0000607381    0.0037895260
  -0.0001628492   -0.0000844752    0.0038770081
  -0.0000060853    0.0001034397    0.0040426574
  -0.0002077982    0.0000374376    0.0039174314
   0.0000017994    0.0000910298    0.0037569636
   0.0000423245    0.0000878025    0.0037698578
   0.0000431206    0.0000939068    0.0040158553
  -0.0000477760    0.0000939599    0.0039242453
   0.0000321707    0.0000559263    0.0038462637
  -0.0000059532    0.0000747184    0.0039909484
  -0.0000330760    0.0001031815    0.0037867043
   0.0000136323    0.0000643814    0.0038056243
  -0.0000204845    0.0000529783    0.0039642313
  -0.0010133592    0.0029451618   -0.0031810626
   0.0001357359   -0.0007640321   -0.0042215458
   0.0069925726   -0.0029748902    0.0023944510
  -0.0055707946   -0.0009807030   -0.0003880847
   0.0026731243   -0.0024420048   -0.0031883719
   0.0006983851   -0.0093348504   -0.0001524749
  -0.0002906899   -0.0002990889   -0.0041048257
   0.0003251943    0.0004888093   -0.0043371898
   0.0032107205    0.0001461201   -0.0016649931
   0.0000404603   -0.0003082879   -0.0028968289
   0.0000049927   -0.0000879387   -0.0037702292
  -0.0000859610   -0.0000923231   -0.0030654864
   0.0001682920   -0.0000910185   -0.0029839761
   0.0000315384   -0.0001234230   -0.0037637426
   0.0000100049   -0.0000262637   -0.0038222321
  -0.0000156394   -0.0000835909   -0.0037747705
  -0.0000008073   -0.0000915051   -0.0037659364
  -0.0000361959   -0.0001381169   -0.0037930204
  -0.0000160946   -0.0000664533   -0.0036483685
   0.0001108281   -0.0001511023   -0.0035760926
  -0.0000099073   -0.0000724877   -0.0036528555
  -0.0000184684   -0.0000703300   -0.0036505139
   0.0001025593   -0.0001307966   -0.0035834281
  -0.0000203596   -0.0001244081   -0.0036714590
  -0.0000766775   -0.0001233463   -0.0036270738
   0.0000554830   -0.0001567229   -0.0035320447
  -0.0000549422   -0.0000969209   -0.0036253702

28   
 -0.0026261471973992   0.0045486203736591  -0.0085096065475394
  -0.0179487418   -0.0059237994   -0.0192081653
  -0.0008340237   -0.0004324812   -0.0018112260
   0.0020165179   -0.0001972251   -0.0021480564
  -0.0018989165    0.0252651959   -0.0259229559
   0.0113747598   -0.0043385891   -0.0127331058
   0.0035763629   -0.0045712447   -0.0010771407
  -0.0025535400   -0.0018539291   -0.0011631853
  -0.0014502800    0.0010920331   -0.0019411392
   0.0028668515   -0.0003209358   -0.0009119574
  -0.0004424896   -0.0002861881    0.0004318206
  -0.0000364297   -0.0004700864    0.0002758151
  -0.0004153815    0.0002904108    0.0002555661
   0.0000143462    0.0005464491    0.0003902388
   0.0004206853   -0.0002601742    0.0004657501
   0.0001121729   -0.0000500140   -0.0000579085
  -0.0000788913   -0.0000119047   -0.0001002498
   0.0003812179    0.0003091735    0.0002646307
   0.0000514574   -0.0000744041   -0.0000003163
  -0.0001427738    0.0001029094    0.0002025418
  -0.0000099710   -0.0000251048    0.0000877679
   0.0002125864   -0.0001018686    0.0003908223
  -0.0000847972    0.0001148862    0.0002958361
   0.0000514853    0.0000630096    0.0001194963
   0.0002122459   -0.0001694536    0.0003209793
  -0.0001889539   -0.0000747675    0.0002405081
  -0.0001041687   -0.0000166952    0.0002385149
   0.0001142837   -0.0001029096    0.0003582257
   0.0181249508   -0.0316554875    0.0806835977
  -0.0015162393    0.0050192943    0.0049671857
  -0.0026670030    0.0034136465    0.0044493554
   0.0021907165    0.0019259459    0.0044409411
  -0.0035145940   -0.0013928182    0.0049730320
  -0.0001430647    0.0003439483    0.0040350955
   0.0010362745    0.0017353649    0.0047002529
  -0.0001422415    0.0003404617    0.0040325304
  -0.0010931808   -0.0004983398    0.0047145093
  -0.0000005521    0.0000936764    0.0037340165
  -0.0001527331    0.0002842245    0.0035969037
   0.0000372183   -0.0001126315    0.0035958957
  -0.0000453908   -0.0001238682    0.0036160375
  -0.0002285309    0.0001315209    0.0035767191
  -0.0000184700    0.0001254734    0.0037040021
   0.0001616901    0.0002689904    0.0036167164
   0.0000058641    0.0000826196    0.0034537569
   0.0002055514    0.0001483605    0.0035764568
  -0.0000012062    0.0000947972    0.0037378005
  -0.0000422933    0.0000979699    0.0037255522
  -0.0000407292    0.0000887124    0.0034733279
   0.0000502973    0.0000939216    0.0035718583
  -0.0000324684    0.0001300387    0.0036479921
   0.0000063162    0.0001107646    0.0035052967
   0.0000337637    0.0000828119    0.0037094502
  -0.0000144376    0.0001216386    0.0036875028
   0.0000218486    0.0001338328    0.0035281888
   0.0010195295   -0.0030927348   -0.0042782806
  -0.0001375158    0.0005814217   -0.0032726014
  -0.0071104911    0.0028246485   -0.0099934281
   0.0056172869    0.0007865100   -0.0071272352
  -0.0027264043    0.0022958276   -0.0042720324
  -0.0007066380    0.0092198143   -0.0073883215
   0.0002942199    0.0001150240   -0.0033909619
  -0.0003254386   -0.0006830965   -0.0031537118
  -0.0031792916   -0.0002978237   -0.0058243539
  -0.0000401251    0.0001168546   -0.0045731510
  -0.0000055907   -0.0000994521   -0.0037222739
   0.0000874853   -0.0000962452   -0.0044201490
  -0.0001669051   -0.0000963817   -0.0044954589
  -0.0000313485   -0.0000630603   -0.0037300701
  -0.0000096443   -0.0001604702   -0.0036699493
   0.0000145287   -0.0001036407   -0.0037180214
   0.0000013104   -0.0000955690   -0.0037272555
   0.0000374537   -0.0000488532   -0.0036999254
   0.0000159770   -0.0001209614   -0.0038437248
  -0.0001117434   -0.0000337414   -0.0039174211
   0.0000124611   -0.0001183345   -0.0038418647
   0.0000195772   -0.0001156191   -0.0038386393
  -0.0001029673   -0.0000560883   -0.0039086299
   0.0000209918   -0.0000610846   -0.0038190327
   0.0000764716   -0.0000625846   -0.0038641914
  -0.0000553504   -0.0000308658   -0.0039606757
   0.0000551903   -0.0000906558   -0.0038657207
