phonopy:
  version: 2.15.0
  calculator: aims
  frequency_unit_conversion_factor: 15.633302
  symmetry_tolerance: 1.00000e-05
  configuration:
    create_displacements: ".true."
    dim: "3 3 3"
    calculator: "aims"

physical_unit:
  atomic_mass: "AMU"
  length: "angstrom"
  force_constants: "eV/angstrom^2"

space_group:
  type: "P-3m1"
  number: 164
  Hall_symbol: "-P 3 2\""

supercell_matrix:
- [   3,   0,   0 ]
- [   0,   3,   0 ]
- [   0,   0,   3 ]

primitive_cell:
  lattice:
  - [     1.812446290000000,    -3.139249060000000,     0.000000000000000 ] # a
  - [     1.812446290000000,     3.139249060000000,     0.000000000000000 ] # b
  - [     0.000000000000000,     0.000000000000000,     5.872939960000000 ] # c
  points:
  - symbol: Zr # 1
    coordinates: [  0.000000000000000,  0.000000000000000,  0.000000000000000 ]
    mass: 91.224000
  - symbol: S  # 2
    coordinates: [  0.333333330000000,  0.666666660000000,  0.247803260000000 ]
    mass: 32.065000
  - symbol: S  # 3
    coordinates: [  0.666666660000000,  0.333333330000000,  0.752196740000000 ]
    mass: 32.065000
  reciprocal_lattice: # without 2pi
  - [     0.275870243856992,    -0.159273759565926,     0.000000000000000 ] # a*
  - [     0.275870243856992,     0.159273759565926,     0.000000000000000 ] # b*
  - [     0.000000000000000,     0.000000000000000,     0.170272471166213 ] # c*

unit_cell:
  lattice:
  - [     1.812446290000000,    -3.139249060000000,     0.000000000000000 ] # a
  - [     1.812446290000000,     3.139249060000000,     0.000000000000000 ] # b
  - [     0.000000000000000,     0.000000000000000,     5.872939960000000 ] # c
  points:
  - symbol: Zr # 1
    coordinates: [  0.000000000000000,  0.000000000000000,  0.000000000000000 ]
    mass: 91.224000
    reduced_to: 1
  - symbol: S  # 2
    coordinates: [  0.333333330000000,  0.666666660000000,  0.247803260000000 ]
    mass: 32.065000
    reduced_to: 2
  - symbol: S  # 3
    coordinates: [  0.666666660000000,  0.333333330000000, -0.247803260000000 ]
    mass: 32.065000
    reduced_to: 3

supercell:
  lattice:
  - [     5.437338870000000,    -9.417747179999999,     0.000000000000000 ] # a
  - [     5.437338870000000,     9.417747179999999,     0.000000000000000 ] # b
  - [     0.000000000000000,     0.000000000000000,    17.618819880000000 ] # c
  points:
  - symbol: Zr # 1
    coordinates: [  0.000000000000000,  0.000000000000000,  0.000000000000000 ]
    mass: 91.224000
    reduced_to: 1
  - symbol: Zr # 2
    coordinates: [  0.333333333333333,  0.000000000000000,  0.000000000000000 ]
    mass: 91.224000
    reduced_to: 1
  - symbol: Zr # 3
    coordinates: [  0.666666666666667,  0.000000000000000,  0.000000000000000 ]
    mass: 91.224000
    reduced_to: 1
  - symbol: Zr # 4
    coordinates: [  0.000000000000000,  0.333333333333333,  0.000000000000000 ]
    mass: 91.224000
    reduced_to: 1
  - symbol: Zr # 5
    coordinates: [  0.333333333333333,  0.333333333333333,  0.000000000000000 ]
    mass: 91.224000
    reduced_to: 1
  - symbol: Zr # 6
    coordinates: [  0.666666666666667,  0.333333333333333,  0.000000000000000 ]
    mass: 91.224000
    reduced_to: 1
  - symbol: Zr # 7
    coordinates: [  0.000000000000000,  0.666666666666667,  0.000000000000000 ]
    mass: 91.224000
    reduced_to: 1
  - symbol: Zr # 8
    coordinates: [  0.333333333333333,  0.666666666666667,  0.000000000000000 ]
    mass: 91.224000
    reduced_to: 1
  - symbol: Zr # 9
    coordinates: [  0.666666666666667,  0.666666666666667,  0.000000000000000 ]
    mass: 91.224000
    reduced_to: 1
  - symbol: Zr # 10
    coordinates: [  0.000000000000000,  0.000000000000000,  0.333333333333333 ]
    mass: 91.224000
    reduced_to: 1
  - symbol: Zr # 11
    coordinates: [  0.333333333333333,  0.000000000000000,  0.333333333333333 ]
    mass: 91.224000
    reduced_to: 1
  - symbol: Zr # 12
    coordinates: [  0.666666666666667,  0.000000000000000,  0.333333333333333 ]
    mass: 91.224000
    reduced_to: 1
  - symbol: Zr # 13
    coordinates: [  0.000000000000000,  0.333333333333333,  0.333333333333333 ]
    mass: 91.224000
    reduced_to: 1
  - symbol: Zr # 14
    coordinates: [  0.333333333333333,  0.333333333333333,  0.333333333333333 ]
    mass: 91.224000
    reduced_to: 1
  - symbol: Zr # 15
    coordinates: [  0.666666666666667,  0.333333333333333,  0.333333333333333 ]
    mass: 91.224000
    reduced_to: 1
  - symbol: Zr # 16
    coordinates: [  0.000000000000000,  0.666666666666667,  0.333333333333333 ]
    mass: 91.224000
    reduced_to: 1
  - symbol: Zr # 17
    coordinates: [  0.333333333333333,  0.666666666666667,  0.333333333333333 ]
    mass: 91.224000
    reduced_to: 1
  - symbol: Zr # 18
    coordinates: [  0.666666666666667,  0.666666666666667,  0.333333333333333 ]
    mass: 91.224000
    reduced_to: 1
  - symbol: Zr # 19
    coordinates: [  0.000000000000000,  0.000000000000000,  0.666666666666667 ]
    mass: 91.224000
    reduced_to: 1
  - symbol: Zr # 20
    coordinates: [  0.333333333333333,  0.000000000000000,  0.666666666666667 ]
    mass: 91.224000
    reduced_to: 1
  - symbol: Zr # 21
    coordinates: [  0.666666666666667,  0.000000000000000,  0.666666666666667 ]
    mass: 91.224000
    reduced_to: 1
  - symbol: Zr # 22
    coordinates: [  0.000000000000000,  0.333333333333333,  0.666666666666667 ]
    mass: 91.224000
    reduced_to: 1
  - symbol: Zr # 23
    coordinates: [  0.333333333333333,  0.333333333333333,  0.666666666666667 ]
    mass: 91.224000
    reduced_to: 1
  - symbol: Zr # 24
    coordinates: [  0.666666666666667,  0.333333333333333,  0.666666666666667 ]
    mass: 91.224000
    reduced_to: 1
  - symbol: Zr # 25
    coordinates: [  0.000000000000000,  0.666666666666667,  0.666666666666667 ]
    mass: 91.224000
    reduced_to: 1
  - symbol: Zr # 26
    coordinates: [  0.333333333333333,  0.666666666666667,  0.666666666666667 ]
    mass: 91.224000
    reduced_to: 1
  - symbol: Zr # 27
    coordinates: [  0.666666666666667,  0.666666666666667,  0.666666666666667 ]
    mass: 91.224000
    reduced_to: 1
  - symbol: S  # 28
    coordinates: [  0.111111110000000,  0.222222220000000,  0.082601086666667 ]
    mass: 32.065000
    reduced_to: 28
  - symbol: S  # 29
    coordinates: [  0.444444443333333,  0.222222220000000,  0.082601086666667 ]
    mass: 32.065000
    reduced_to: 28
  - symbol: S  # 30
    coordinates: [  0.777777776666667,  0.222222220000000,  0.082601086666667 ]
    mass: 32.065000
    reduced_to: 28
  - symbol: S  # 31
    coordinates: [  0.111111110000000,  0.555555553333333,  0.082601086666667 ]
    mass: 32.065000
    reduced_to: 28
  - symbol: S  # 32
    coordinates: [  0.444444443333333,  0.555555553333333,  0.082601086666667 ]
    mass: 32.065000
    reduced_to: 28
  - symbol: S  # 33
    coordinates: [  0.777777776666667,  0.555555553333333,  0.082601086666667 ]
    mass: 32.065000
    reduced_to: 28
  - symbol: S  # 34
    coordinates: [  0.111111110000000,  0.888888886666667,  0.082601086666667 ]
    mass: 32.065000
    reduced_to: 28
  - symbol: S  # 35
    coordinates: [  0.444444443333333,  0.888888886666667,  0.082601086666667 ]
    mass: 32.065000
    reduced_to: 28
  - symbol: S  # 36
    coordinates: [  0.777777776666667,  0.888888886666667,  0.082601086666667 ]
    mass: 32.065000
    reduced_to: 28
  - symbol: S  # 37
    coordinates: [  0.111111110000000,  0.222222220000000,  0.415934420000000 ]
    mass: 32.065000
    reduced_to: 28
  - symbol: S  # 38
    coordinates: [  0.444444443333333,  0.222222220000000,  0.415934420000000 ]
    mass: 32.065000
    reduced_to: 28
  - symbol: S  # 39
    coordinates: [  0.777777776666667,  0.222222220000000,  0.415934420000000 ]
    mass: 32.065000
    reduced_to: 28
  - symbol: S  # 40
    coordinates: [  0.111111110000000,  0.555555553333333,  0.415934420000000 ]
    mass: 32.065000
    reduced_to: 28
  - symbol: S  # 41
    coordinates: [  0.444444443333333,  0.555555553333333,  0.415934420000000 ]
    mass: 32.065000
    reduced_to: 28
  - symbol: S  # 42
    coordinates: [  0.777777776666667,  0.555555553333333,  0.415934420000000 ]
    mass: 32.065000
    reduced_to: 28
  - symbol: S  # 43
    coordinates: [  0.111111110000000,  0.888888886666667,  0.415934420000000 ]
    mass: 32.065000
    reduced_to: 28
  - symbol: S  # 44
    coordinates: [  0.444444443333333,  0.888888886666667,  0.415934420000000 ]
    mass: 32.065000
    reduced_to: 28
  - symbol: S  # 45
    coordinates: [  0.777777776666667,  0.888888886666667,  0.415934420000000 ]
    mass: 32.065000
    reduced_to: 28
  - symbol: S  # 46
    coordinates: [  0.111111110000000,  0.222222220000000,  0.749267753333333 ]
    mass: 32.065000
    reduced_to: 28
  - symbol: S  # 47
    coordinates: [  0.444444443333333,  0.222222220000000,  0.749267753333333 ]
    mass: 32.065000
    reduced_to: 28
  - symbol: S  # 48
    coordinates: [  0.777777776666667,  0.222222220000000,  0.749267753333333 ]
    mass: 32.065000
    reduced_to: 28
  - symbol: S  # 49
    coordinates: [  0.111111110000000,  0.555555553333333,  0.749267753333333 ]
    mass: 32.065000
    reduced_to: 28
  - symbol: S  # 50
    coordinates: [  0.444444443333333,  0.555555553333333,  0.749267753333333 ]
    mass: 32.065000
    reduced_to: 28
  - symbol: S  # 51
    coordinates: [  0.777777776666667,  0.555555553333333,  0.749267753333333 ]
    mass: 32.065000
    reduced_to: 28
  - symbol: S  # 52
    coordinates: [  0.111111110000000,  0.888888886666667,  0.749267753333333 ]
    mass: 32.065000
    reduced_to: 28
  - symbol: S  # 53
    coordinates: [  0.444444443333333,  0.888888886666667,  0.749267753333333 ]
    mass: 32.065000
    reduced_to: 28
  - symbol: S  # 54
    coordinates: [  0.777777776666667,  0.888888886666667,  0.749267753333333 ]
    mass: 32.065000
    reduced_to: 28
  - symbol: S  # 55
    coordinates: [  0.222222220000000,  0.111111110000000,  0.917398913333333 ]
    mass: 32.065000
    reduced_to: 55
  - symbol: S  # 56
    coordinates: [  0.555555553333333,  0.111111110000000,  0.917398913333333 ]
    mass: 32.065000
    reduced_to: 55
  - symbol: S  # 57
    coordinates: [  0.888888886666667,  0.111111110000000,  0.917398913333333 ]
    mass: 32.065000
    reduced_to: 55
  - symbol: S  # 58
    coordinates: [  0.222222220000000,  0.444444443333333,  0.917398913333333 ]
    mass: 32.065000
    reduced_to: 55
  - symbol: S  # 59
    coordinates: [  0.555555553333333,  0.444444443333333,  0.917398913333333 ]
    mass: 32.065000
    reduced_to: 55
  - symbol: S  # 60
    coordinates: [  0.888888886666667,  0.444444443333333,  0.917398913333333 ]
    mass: 32.065000
    reduced_to: 55
  - symbol: S  # 61
    coordinates: [  0.222222220000000,  0.777777776666667,  0.917398913333333 ]
    mass: 32.065000
    reduced_to: 55
  - symbol: S  # 62
    coordinates: [  0.555555553333333,  0.777777776666667,  0.917398913333333 ]
    mass: 32.065000
    reduced_to: 55
  - symbol: S  # 63
    coordinates: [  0.888888886666667,  0.777777776666667,  0.917398913333333 ]
    mass: 32.065000
    reduced_to: 55
  - symbol: S  # 64
    coordinates: [  0.222222220000000,  0.111111110000000,  0.250732246666667 ]
    mass: 32.065000
    reduced_to: 55
  - symbol: S  # 65
    coordinates: [  0.555555553333333,  0.111111110000000,  0.250732246666667 ]
    mass: 32.065000
    reduced_to: 55
  - symbol: S  # 66
    coordinates: [  0.888888886666667,  0.111111110000000,  0.250732246666667 ]
    mass: 32.065000
    reduced_to: 55
  - symbol: S  # 67
    coordinates: [  0.222222220000000,  0.444444443333333,  0.250732246666667 ]
    mass: 32.065000
    reduced_to: 55
  - symbol: S  # 68
    coordinates: [  0.555555553333333,  0.444444443333333,  0.250732246666667 ]
    mass: 32.065000
    reduced_to: 55
  - symbol: S  # 69
    coordinates: [  0.888888886666667,  0.444444443333333,  0.250732246666667 ]
    mass: 32.065000
    reduced_to: 55
  - symbol: S  # 70
    coordinates: [  0.222222220000000,  0.777777776666667,  0.250732246666667 ]
    mass: 32.065000
    reduced_to: 55
  - symbol: S  # 71
    coordinates: [  0.555555553333333,  0.777777776666667,  0.250732246666667 ]
    mass: 32.065000
    reduced_to: 55
  - symbol: S  # 72
    coordinates: [  0.888888886666667,  0.777777776666667,  0.250732246666667 ]
    mass: 32.065000
    reduced_to: 55
  - symbol: S  # 73
    coordinates: [  0.222222220000000,  0.111111110000000,  0.584065580000000 ]
    mass: 32.065000
    reduced_to: 55
  - symbol: S  # 74
    coordinates: [  0.555555553333333,  0.111111110000000,  0.584065580000000 ]
    mass: 32.065000
    reduced_to: 55
  - symbol: S  # 75
    coordinates: [  0.888888886666667,  0.111111110000000,  0.584065580000000 ]
    mass: 32.065000
    reduced_to: 55
  - symbol: S  # 76
    coordinates: [  0.222222220000000,  0.444444443333333,  0.584065580000000 ]
    mass: 32.065000
    reduced_to: 55
  - symbol: S  # 77
    coordinates: [  0.555555553333333,  0.444444443333333,  0.584065580000000 ]
    mass: 32.065000
    reduced_to: 55
  - symbol: S  # 78
    coordinates: [  0.888888886666667,  0.444444443333333,  0.584065580000000 ]
    mass: 32.065000
    reduced_to: 55
  - symbol: S  # 79
    coordinates: [  0.222222220000000,  0.777777776666667,  0.584065580000000 ]
    mass: 32.065000
    reduced_to: 55
  - symbol: S  # 80
    coordinates: [  0.555555553333333,  0.777777776666667,  0.584065580000000 ]
    mass: 32.065000
    reduced_to: 55
  - symbol: S  # 81
    coordinates: [  0.888888886666667,  0.777777776666667,  0.584065580000000 ]
    mass: 32.065000
    reduced_to: 55

displacements:
- atom:    1
  displacement:
    [   0.0026261471973992, -0.0045486203736591,  0.0085096065475394 ]
- atom:   28
  displacement:
    [   0.0026261471973992, -0.0045486203736591,  0.0085096065475394 ]
- atom:   28
  displacement:
    [  -0.0026261471973992,  0.0045486203736591, -0.0085096065475394 ]
