calculator: aims
length_unit: angstrom
nqpoint: 459    
npath: 9      
segment_nqpoint:
- 51
- 51
- 51
- 51
- 51
- 51
- 51
- 51
- 51
labels:
- [ 'G', 'X' ]
- [ 'X', 'M' ]
- [ 'M', 'G' ]
- [ 'G', 'Z' ]
- [ 'Z', 'R' ]
- [ 'R', 'A' ]
- [ 'A', 'Z:' ]
- [ 'X', 'R:' ]
- [ 'M', 'A' ]
reciprocal_lattice:
- [   0.27997633,   0.00000000,   0.00000000 ] # a*
- [   0.00000000,   0.27997633,   0.00000000 ] # b*
- [   0.00000000,   0.00000000,   0.18453855 ] # c*
natom: 4      
lattice:
- [     3.571730530000000,     0.000000000000000,     0.000000000000000 ] # a
- [     0.000000000000000,     3.571730530000000,     0.000000000000000 ] # b
- [     0.000000000000000,     0.000000000000000,     5.418921950000000 ] # c
points:
- symbol: S  # 1
  coordinates: [  0.000000000000000,  0.500000000000000,  0.702419810000000 ]
  mass: 32.065000
- symbol: S  # 2
  coordinates: [  0.500000000000000,  0.000000000000000,  0.297580190000000 ]
  mass: 32.065000
- symbol: Zr # 3
  coordinates: [  0.000000000000000,  0.500000000000000,  0.190518570000000 ]
  mass: 91.224000
- symbol: Zr # 4
  coordinates: [  0.500000000000000,  0.000000000000000,  0.809481430000000 ]
  mass: 91.224000

phonon:
- q-position: [    0.0000000,    0.0000000,    0.0000000 ]
  distance:    0.0000000
  band:
  - # 1
    frequency:   -0.0000000502
  - # 2
    frequency:    0.0000000241
  - # 3
    frequency:    0.0000001837
  - # 4
    frequency:    1.0493327903
  - # 5
    frequency:    1.0493327903
  - # 6
    frequency:    5.5502102349
  - # 7
    frequency:    7.1781055212
  - # 8
    frequency:    7.7438566838
  - # 9
    frequency:    9.0332720352
  - # 10
    frequency:    9.0332720352
  - # 11
    frequency:    9.0448332636
  - # 12
    frequency:    9.0448332636

- q-position: [    0.0000000,    0.0100000,    0.0000000 ]
  distance:    0.0027998
  band:
  - # 1
    frequency:    0.0445835464
  - # 2
    frequency:    0.1499172252
  - # 3
    frequency:    0.1699638055
  - # 4
    frequency:    1.0560016561
  - # 5
    frequency:    1.0574965438
  - # 6
    frequency:    5.5496294567
  - # 7
    frequency:    7.1780844562
  - # 8
    frequency:    7.7425375763
  - # 9
    frequency:    9.0328361506
  - # 10
    frequency:    9.0345763633
  - # 11
    frequency:    9.0442163474
  - # 12
    frequency:    9.0458045508

- q-position: [    0.0000000,    0.0200000,    0.0000000 ]
  distance:    0.0055995
  band:
  - # 1
    frequency:    0.0908972349
  - # 2
    frequency:    0.2996789012
  - # 3
    frequency:    0.3396644713
  - # 4
    frequency:    1.0757446376
  - # 5
    frequency:    1.0814476414
  - # 6
    frequency:    5.5478853858
  - # 7
    frequency:    7.1780240428
  - # 8
    frequency:    7.7386015113
  - # 9
    frequency:    9.0315296161
  - # 10
    frequency:    9.0384808154
  - # 11
    frequency:    9.0423672990
  - # 12
    frequency:    9.0487040014

- q-position: [    0.0000000,    0.0300000,    0.0000000 ]
  distance:    0.0083993
  band:
  - # 1
    frequency:    0.1401769094
  - # 2
    frequency:    0.4491295910
  - # 3
    frequency:    0.5088387181
  - # 4
    frequency:    1.1078175824
  - # 5
    frequency:    1.1197287305
  - # 6
    frequency:    5.5449728476
  - # 7
    frequency:    7.1779325165
  - # 8
    frequency:    7.7321113066
  - # 9
    frequency:    9.0293557845
  - # 10
    frequency:    9.0392912225
  - # 11
    frequency:    9.0449599235
  - # 12
    frequency:    9.0534892984

- q-position: [    0.0000000,    0.0400000,    0.0000000 ]
  distance:    0.0111991
  band:
  - # 1
    frequency:    0.1929724102
  - # 2
    frequency:    0.5981140808
  - # 3
    frequency:    0.6772229942
  - # 4
    frequency:    1.1511176599
  - # 5
    frequency:    1.1703489843
  - # 6
    frequency:    5.5408833298
  - # 7
    frequency:    7.1778232437
  - # 8
    frequency:    7.7231685954
  - # 9
    frequency:    9.0263202237
  - # 10
    frequency:    9.0349966364
  - # 11
    frequency:    9.0539716618
  - # 12
    frequency:    9.0600928455

- q-position: [    0.0000000,    0.0500000,    0.0000000 ]
  distance:    0.0139988
  band:
  - # 1
    frequency:    0.2492686478
  - # 2
    frequency:    0.7464774875
  - # 3
    frequency:    0.8445533532
  - # 4
    frequency:    1.2043374760
  - # 5
    frequency:    1.2311794288
  - # 6
    frequency:    5.5356051505
  - # 7
    frequency:    7.1777142055
  - # 8
    frequency:    7.7119096220
  - # 9
    frequency:    9.0224306882
  - # 10
    frequency:    9.0294954922
  - # 11
    frequency:    9.0654580564
  - # 12
    frequency:    9.0684257730

- q-position: [    0.0000000,    0.0600000,    0.0000000 ]
  distance:    0.0167986
  band:
  - # 1
    frequency:    0.3087296615
  - # 2
    frequency:    0.8940653628
  - # 3
    frequency:    1.0105653518
  - # 4
    frequency:    1.2661083564
  - # 5
    frequency:    1.3002220151
  - # 6
    frequency:    5.5291236907
  - # 7
    frequency:    7.1776273185
  - # 8
    frequency:    7.6985000454
  - # 9
    frequency:    9.0176970793
  - # 10
    frequency:    9.0228031990
  - # 11
    frequency:    9.0783828509
  - # 12
    frequency:    9.0793459967

- q-position: [    0.0000000,    0.0700000,    0.0000000 ]
  distance:    0.0195983
  band:
  - # 1
    frequency:    0.3709078476
  - # 2
    frequency:    1.0407237902
  - # 3
    frequency:    1.1749939738
  - # 4
    frequency:    1.3351071289
  - # 5
    frequency:    1.3757342253
  - # 6
    frequency:    5.5214216915
  - # 7
    frequency:    7.1775876297
  - # 8
    frequency:    7.6831292666
  - # 9
    frequency:    9.0121313945
  - # 10
    frequency:    9.0149386565
  - # 11
    frequency:    9.0898477881
  - # 12
    frequency:    9.0955482110

- q-position: [    0.0000000,    0.0800000,    0.0000000 ]
  distance:    0.0223981
  band:
  - # 1
    frequency:    0.4353686944
  - # 2
    frequency:    1.1862994764
  - # 3
    frequency:    1.3375735898
  - # 4
    frequency:    1.4101206307
  - # 5
    frequency:    1.4562542640
  - # 6
    frequency:    5.5124796110
  - # 7
    frequency:    7.1776224283
  - # 8
    frequency:    7.6660047516
  - # 9
    frequency:    9.0057476686
  - # 10
    frequency:    9.0059242947
  - # 11
    frequency:    9.1026984408
  - # 12
    frequency:    9.1139643673

- q-position: [    0.0000000,    0.0900000,    0.0000000 ]
  distance:    0.0251979
  band:
  - # 1
    frequency:    0.5017452792
  - # 2
    frequency:    1.3306398336
  - # 3
    frequency:    1.4900748415
  - # 4
    frequency:    1.4980379645
  - # 5
    frequency:    1.5405768939
  - # 6
    frequency:    5.5022760387
  - # 7
    frequency:    7.1777603188
  - # 8
    frequency:    7.6473467185
  - # 9
    frequency:    8.9957861212
  - # 10
    frequency:    8.9985619058
  - # 11
    frequency:    9.1168115513
  - # 12
    frequency:    9.1344822550

- q-position: [    0.0000000,    0.1000000,    0.0000000 ]
  distance:    0.0279976
  band:
  - # 1
    frequency:    0.5697510550
  - # 2
    frequency:    1.4735930524
  - # 3
    frequency:    1.5740398387
  - # 4
    frequency:    1.6277127546
  - # 5
    frequency:    1.6561203233
  - # 6
    frequency:    5.4907881615
  - # 7
    frequency:    7.1780302933
  - # 8
    frequency:    7.6273834296
  - # 9
    frequency:    8.9845537753
  - # 10
    frequency:    8.9905920049
  - # 11
    frequency:    9.1320667697
  - # 12
    frequency:    9.1569790112

- q-position: [    0.0000000,    0.1100000,    0.0000000 ]
  distance:    0.0307974
  band:
  - # 1
    frequency:    0.6391729489
  - # 2
    frequency:    1.6150081650
  - # 3
    frequency:    1.6612208451
  - # 4
    frequency:    1.7168473857
  - # 5
    frequency:    1.8115534955
  - # 6
    frequency:    5.4779922763
  - # 7
    frequency:    7.1784608417
  - # 8
    frequency:    7.6063471959
  - # 9
    frequency:    8.9722605902
  - # 10
    frequency:    8.9818576795
  - # 11
    frequency:    9.1483498373
  - # 12
    frequency:    9.1813223540

- q-position: [    0.0000000,    0.1200000,    0.0000000 ]
  distance:    0.0335972
  band:
  - # 1
    frequency:    0.7098575239
  - # 2
    frequency:    1.7509428007
  - # 3
    frequency:    1.7547350965
  - # 4
    frequency:    1.8073060339
  - # 5
    frequency:    1.9640701502
  - # 6
    frequency:    5.4638643396
  - # 7
    frequency:    7.1790791280
  - # 8
    frequency:    7.5844711029
  - # 9
    frequency:    8.9589436611
  - # 10
    frequency:    8.9723803735
  - # 11
    frequency:    9.1655549150
  - # 12
    frequency:    9.2073717976

- q-position: [    0.0000000,    0.1300000,    0.0000000 ]
  distance:    0.0363969
  band:
  - # 1
    frequency:    0.7816963891
  - # 2
    frequency:    1.8426330712
  - # 3
    frequency:    1.8926247056
  - # 4
    frequency:    1.8985254515
  - # 5
    frequency:    2.1134031473
  - # 6
    frequency:    5.4483805452
  - # 7
    frequency:    7.1799102553
  - # 8
    frequency:    7.5619863860
  - # 9
    frequency:    8.9446439199
  - # 10
    frequency:    8.9621831753
  - # 11
    frequency:    9.1835861104
  - # 12
    frequency:    9.2349798266

- q-position: [    0.0000000,    0.1400000,    0.0000000 ]
  distance:    0.0391967
  band:
  - # 1
    frequency:    0.8546133580
  - # 2
    frequency:    1.9358047884
  - # 3
    frequency:    1.9900319886
  - # 4
    frequency:    2.0285288126
  - # 5
    frequency:    2.2592860272
  - # 6
    frequency:    5.4315179190
  - # 7
    frequency:    7.1809766341
  - # 8
    frequency:    7.5391203457
  - # 9
    frequency:    8.9294062157
  - # 10
    frequency:    8.9512907310
  - # 11
    frequency:    9.2023583039
  - # 12
    frequency:    9.2639930154

- q-position: [    0.0000000,    0.1500000,    0.0000000 ]
  distance:    0.0419964
  band:
  - # 1
    frequency:    0.9285540513
  - # 2
    frequency:    2.0300419652
  - # 3
    frequency:    2.0814247737
  - # 4
    frequency:    2.1623002163
  - # 5
    frequency:    2.4014536647
  - # 6
    frequency:    5.4132549171
  - # 7
    frequency:    7.1822974624
  - # 8
    frequency:    7.5160946711
  - # 9
    frequency:    8.9132793997
  - # 10
    frequency:    8.9397291600
  - # 11
    frequency:    9.2217973862
  - # 12
    frequency:    9.2942530857

- q-position: [    0.0000000,    0.1600000,    0.0000000 ]
  distance:    0.0447962
  band:
  - # 1
    frequency:    1.0034778657
  - # 2
    frequency:    2.1249867472
  - # 3
    frequency:    2.1723628098
  - # 4
    frequency:    2.2937927004
  - # 5
    frequency:    2.5396431147
  - # 6
    frequency:    5.3935720136
  - # 7
    frequency:    7.1838883192
  - # 8
    frequency:    7.4931240437
  - # 9
    frequency:    8.8963164133
  - # 10
    frequency:    8.9275259745
  - # 11
    frequency:    9.2418400246
  - # 12
    frequency:    9.3255978993

- q-position: [    0.0000000,    0.1700000,    0.0000000 ]
  distance:    0.0475960
  band:
  - # 1
    frequency:    1.0793519540
  - # 2
    frequency:    2.2203287610
  - # 3
    frequency:    2.2625550194
  - # 4
    frequency:    2.4228610292
  - # 5
    frequency:    2.6735946789
  - # 6
    frequency:    5.3724522629
  - # 7
    frequency:    7.1857608704
  - # 8
    frequency:    7.4704149022
  - # 9
    frequency:    8.8785743774
  - # 10
    frequency:    8.9147100056
  - # 11
    frequency:    9.2624330587
  - # 12
    frequency:    9.3578623881

- q-position: [    0.0000000,    0.1800000,    0.0000000 ]
  distance:    0.0503957
  band:
  - # 1
    frequency:    1.1561468135
  - # 2
    frequency:    2.3157963403
  - # 3
    frequency:    2.3517524914
  - # 4
    frequency:    2.5493609363
  - # 5
    frequency:    2.8030532190
  - # 6
    frequency:    5.3498818228
  - # 7
    frequency:    7.1879226784
  - # 8
    frequency:    7.4481642667
  - # 9
    frequency:    8.8601146802
  - # 10
    frequency:    8.9013113378
  - # 11
    frequency:    9.2835326163
  - # 12
    frequency:    9.3908794252

- q-position: [    0.0000000,    0.1900000,    0.0000000 ]
  distance:    0.0531955
  band:
  - # 1
    frequency:    1.2338331184
  - # 2
    frequency:    2.4111493521
  - # 3
    frequency:    2.4397423718
  - # 4
    frequency:    2.6731491079
  - # 5
    frequency:    2.9277697379
  - # 6
    frequency:    5.3258504245
  - # 7
    frequency:    7.1903771092
  - # 8
    frequency:    7.4265585446
  - # 9
    frequency:    8.8410030602
  - # 10
    frequency:    8.8873612549
  - # 11
    frequency:    9.3051030185
  - # 12
    frequency:    9.4244806451

- q-position: [    0.0000000,    0.2000000,    0.0000000 ]
  distance:    0.0559953
  band:
  - # 1
    frequency:    1.3123794950
  - # 2
    frequency:    2.5061733468
  - # 3
    frequency:    2.5263429818
  - # 4
    frequency:    2.7940831648
  - # 5
    frequency:    3.0475032434
  - # 6
    frequency:    5.3003517806
  - # 7
    frequency:    7.1931233247
  - # 8
    frequency:    7.4057722548
  - # 9
    frequency:    8.8213096808
  - # 10
    frequency:    8.8728921995
  - # 11
    frequency:    9.3271155313
  - # 12
    frequency:    9.4584972182

- q-position: [    0.0000000,    0.2100000,    0.0000000 ]
  distance:    0.0587950
  band:
  - # 1
    frequency:    1.3917510041
  - # 2
    frequency:    2.6006747848
  - # 3
    frequency:    2.6113998603
  - # 4
    frequency:    2.9120216469
  - # 5
    frequency:    3.1620228923
  - # 6
    frequency:    5.2733839269
  - # 7
    frequency:    7.1961563502
  - # 8
    frequency:    7.3859666357
  - # 9
    frequency:    8.8011091894
  - # 10
    frequency:    8.8579377484
  - # 11
    frequency:    9.3495470071
  - # 12
    frequency:    9.4927605888

- q-position: [    0.0000000,    0.2200000,    0.0000000 ]
  distance:    0.0615948
  band:
  - # 1
    frequency:    1.4719081520
  - # 2
    frequency:    2.6944771283
  - # 3
    frequency:    2.6947825056
  - # 4
    frequency:    3.0268240085
  - # 5
    frequency:    3.2711103945
  - # 6
    frequency:    5.2449494991
  - # 7
    frequency:    7.1994672048
  - # 8
    frequency:    7.3672881194
  - # 9
    frequency:    8.7804807576
  - # 10
    frequency:    8.8425326064
  - # 11
    frequency:    9.3723784500
  - # 12
    frequency:    9.5271031817

- q-position: [    0.0000000,    0.2300000,    0.0000000 ]
  distance:    0.0643946
  band:
  - # 1
    frequency:    1.5528062915
  - # 2
    frequency:    2.7763816471
  - # 3
    frequency:    2.7874176249
  - # 4
    frequency:    3.1383506280
  - # 5
    frequency:    3.3745626310
  - # 6
    frequency:    5.2150559589
  - # 7
    frequency:    7.2030430843
  - # 8
    frequency:    7.3498666818
  - # 9
    frequency:    8.7595080918
  - # 10
    frequency:    8.8267126208
  - # 11
    frequency:    9.3955935341
  - # 12
    frequency:    9.5613590842

- q-position: [    0.0000000,    0.2400000,    0.0000000 ]
  distance:    0.0671943
  band:
  - # 1
    frequency:    1.6343953136
  - # 2
    frequency:    2.8561069246
  - # 3
    frequency:    2.8793446402
  - # 4
    frequency:    3.2464628452
  - # 5
    frequency:    3.4721944001
  - # 6
    frequency:    5.1837157937
  - # 7
    frequency:    7.2068675847
  - # 8
    frequency:    7.3338141032
  - # 9
    frequency:    8.7382794068
  - # 10
    frequency:    8.8105148179
  - # 11
    frequency:    9.4191770980
  - # 12
    frequency:    9.5953647082

- q-position: [    0.0000000,    0.2500000,    0.0000000 ]
  distance:    0.0699941
  band:
  - # 1
    frequency:    1.7166195526
  - # 2
    frequency:    2.9338848822
  - # 3
    frequency:    2.9701154289
  - # 4
    frequency:    3.3510230322
  - # 5
    frequency:    3.5638411712
  - # 6
    frequency:    5.1509467300
  - # 7
    frequency:    7.2109209574
  - # 8
    frequency:    7.3192222007
  - # 9
    frequency:    8.7168873512
  - # 10
    frequency:    8.7939774636
  - # 11
    frequency:    9.4431136425
  - # 12
    frequency:    9.6289594355

- q-position: [    0.0000000,    0.2600000,    0.0000000 ]
  distance:    0.0727938
  band:
  - # 1
    frequency:    1.7994178484
  - # 2
    frequency:    3.0096572053
  - # 3
    frequency:    3.0595942523
  - # 4
    frequency:    3.4518947135
  - # 5
    frequency:    3.6493616724
  - # 6
    frequency:    5.1167720228
  - # 7
    frequency:    7.2151803868
  - # 8
    frequency:    7.3061611228
  - # 9
    frequency:    8.6954288721
  - # 10
    frequency:    8.7771401500
  - # 11
    frequency:    9.4673858521
  - # 12
    frequency:    9.6619862487

- q-position: [    0.0000000,    0.2700000,    0.0000000 ]
  distance:    0.0755936
  band:
  - # 1
    frequency:    1.8827237228
  - # 2
    frequency:    3.0833791503
  - # 3
    frequency:    3.1476507730
  - # 4
    frequency:    3.5489427459
  - # 5
    frequency:    3.7286400885
  - # 6
    frequency:    5.0812209054
  - # 7
    frequency:    7.2196202813
  - # 8
    frequency:    7.2946778202
  - # 9
    frequency:    8.6740050072
  - # 10
    frequency:    8.7600439066
  - # 11
    frequency:    9.4919731713
  - # 12
    frequency:    9.6942923502

- q-position: [    0.0000000,    0.2800000,    0.0000000 ]
  distance:    0.0783934
  band:
  - # 1
    frequency:    1.9664656377
  - # 2
    frequency:    3.1550181257
  - # 3
    frequency:    3.2341586706
  - # 4
    frequency:    3.6420335742
  - # 5
    frequency:    3.8015875942
  - # 6
    frequency:    5.0443293179
  - # 7
    frequency:    7.2242125717
  - # 8
    frequency:    7.2847948290
  - # 9
    frequency:    8.6527205872
  - # 10
    frequency:    8.7427313392
  - # 11
    frequency:    9.5168504608
  - # 12
    frequency:    9.7257297677

- q-position: [    0.0000000,    0.2900000,    0.0000000 ]
  distance:    0.0811931
  band:
  - # 1
    frequency:    2.0505673108
  - # 2
    frequency:    3.2245523958
  - # 3
    frequency:    3.3189944349
  - # 4
    frequency:    3.7310355773
  - # 5
    frequency:    3.8681428923
  - # 6
    frequency:    5.0061410736
  - # 7
    frequency:    7.2289270113
  - # 8
    frequency:    7.2765095067
  - # 9
    frequency:    8.6316838354
  - # 10
    frequency:    8.7252467929
  - # 11
    frequency:    9.5419867666
  - # 12
    frequency:    9.7561559483

- q-position: [    0.0000000,    0.3000000,    0.0000000 ]
  distance:    0.0839929
  band:
  - # 1
    frequency:    2.1349480689
  - # 2
    frequency:    3.2919698843
  - # 3
    frequency:    3.4020363053
  - # 4
    frequency:    3.8158195199
  - # 5
    frequency:    3.9282713746
  - # 6
    frequency:    4.9667096825
  - # 7
    frequency:    7.2337314712
  - # 8
    frequency:    7.2697938604
  - # 9
    frequency:    8.6110058487
  - # 10
    frequency:    8.7076365388
  - # 11
    frequency:    9.5673442335
  - # 12
    frequency:    9.7854343379

- q-position: [    0.0000000,    0.3100000,    0.0000000 ]
  distance:    0.0867927
  band:
  - # 1
    frequency:    2.2195232234
  - # 2
    frequency:    3.3572670596
  - # 3
    frequency:    3.4831633297
  - # 4
    frequency:    3.8962591241
  - # 5
    frequency:    3.9819624693
  - # 6
    frequency:    4.9261011284
  - # 7
    frequency:    7.2385922297
  - # 8
    frequency:    7.2645950784
  - # 9
    frequency:    8.5907999449
  - # 10
    frequency:    8.6899489825
  - # 11
    frequency:    9.5928771942
  - # 12
    frequency:    9.8134349464

- q-position: [    0.0000000,    0.3200000,    0.0000000 ]
  distance:    0.0895924
  band:
  - # 1
    frequency:    2.3042044554
  - # 2
    frequency:    3.4204478908
  - # 3
    frequency:    3.5622545263
  - # 4
    frequency:    3.9722317731
  - # 5
    frequency:    4.0292246680
  - # 6
    frequency:    4.8843980092
  - # 7
    frequency:    7.2434742519
  - # 8
    frequency:    7.2608368384
  - # 9
    frequency:    8.5711808656
  - # 10
    frequency:    8.6722348874
  - # 11
    frequency:    9.6185314649
  - # 12
    frequency:    9.8400348960

- q-position: [    0.0000000,    0.3300000,    0.0000000 ]
  distance:    0.0923922
  band:
  - # 1
    frequency:    2.3889001986
  - # 2
    frequency:    3.4815228631
  - # 3
    frequency:    3.6391881366
  - # 4
    frequency:    4.0436193558
  - # 5
    frequency:    4.0700776394
  - # 6
    frequency:    4.8417055996
  - # 7
    frequency:    7.2483414588
  - # 8
    frequency:    7.2584214042
  - # 9
    frequency:    8.5522638259
  - # 10
    frequency:    8.6545476096
  - # 11
    frequency:    9.6442438725
  - # 12
    frequency:    9.8651189512

- q-position: [    0.0000000,    0.3400000,    0.0000000 ]
  distance:    0.0951920
  band:
  - # 1
    frequency:    2.4735160093
  - # 2
    frequency:    3.5405080489
  - # 3
    frequency:    3.7138409629
  - # 4
    frequency:    4.1045407258
  - # 5
    frequency:    4.1103092538
  - # 6
    frequency:    4.7981605755
  - # 7
    frequency:    7.2531569870
  - # 8
    frequency:    7.2572324632
  - # 9
    frequency:    8.5341634076
  - # 10
    frequency:    8.6369433359
  - # 11
    frequency:    9.6699420324
  - # 12
    frequency:    9.8885800277

- q-position: [    0.0000000,    0.3500000,    0.0000000 ]
  distance:    0.0979917
  band:
  - # 1
    frequency:    2.5579549118
  - # 2
    frequency:    3.5974242275
  - # 3
    frequency:    3.7860877885
  - # 4
    frequency:    4.1326170229
  - # 5
    frequency:    4.1721954691
  - # 6
    frequency:    4.7539433090
  - # 7
    frequency:    7.2571385847
  - # 8
    frequency:    7.2578834408
  - # 9
    frequency:    8.5169923017
  - # 10
    frequency:    8.6194813148
  - # 11
    frequency:    9.6955443909
  - # 12
    frequency:    9.9103196786

- q-position: [    0.0000000,    0.3600000,    0.0000000 ]
  distance:    0.1007915
  band:
  - # 1
    frequency:    2.6421177072
  - # 2
    frequency:    3.6522960564
  - # 3
    frequency:    3.8558008829
  - # 4
    frequency:    4.1542723362
  - # 5
    frequency:    4.2291798768
  - # 6
    frequency:    4.7092946134
  - # 7
    frequency:    7.2579971295
  - # 8
    frequency:    7.2624831387
  - # 9
    frequency:    8.5008599121
  - # 10
    frequency:    8.6022240689
  - # 11
    frequency:    9.7209605327
  - # 12
    frequency:    9.9302485558

- q-position: [    0.0000000,    0.3700000,    0.0000000 ]
  distance:    0.1035912
  band:
  - # 1
    frequency:    2.7259032301
  - # 2
    frequency:    3.7051512952
  - # 3
    frequency:    3.9228495989
  - # 4
    frequency:    4.1694090639
  - # 5
    frequency:    4.2811735804
  - # 6
    frequency:    4.6645371098
  - # 7
    frequency:    7.2596584009
  - # 8
    frequency:    7.2669183600
  - # 9
    frequency:    8.4858708474
  - # 10
    frequency:    8.5852375751
  - # 11
    frequency:    9.7460917465
  - # 12
    frequency:    9.9482868428

- q-position: [    0.0000000,    0.3800000,    0.0000000 ]
  distance:    0.1063910
  band:
  - # 1
    frequency:    2.8092085333
  - # 2
    frequency:    3.7560200915
  - # 3
    frequency:    3.9871000709
  - # 4
    frequency:    4.1778376229
  - # 5
    frequency:    4.3280983336
  - # 6
    frequency:    4.6200988409
  - # 7
    frequency:    7.2619698117
  - # 8
    frequency:    7.2711515979
  - # 9
    frequency:    8.4721233335
  - # 10
    frequency:    8.5685913962
  - # 11
    frequency:    9.7708318332
  - # 12
    frequency:    9.9643646581

- q-position: [    0.0000000,    0.3900000,    0.0000000 ]
  distance:    0.1091908
  band:
  - # 1
    frequency:    2.8919289770
  - # 2
    frequency:    3.8049343432
  - # 3
    frequency:    4.0484150281
  - # 4
    frequency:    4.1792545434
  - # 5
    frequency:    4.3698879824
  - # 6
    frequency:    4.5765302499
  - # 7
    frequency:    7.2647798547
  - # 8
    frequency:    7.2751458242
  - # 9
    frequency:    8.4597075977
  - # 10
    frequency:    8.5523587445
  - # 11
    frequency:    9.7950681272
  - # 12
    frequency:    9.9784224242

- q-position: [    0.0000000,    0.4000000,    0.0000000 ]
  distance:    0.1119905
  band:
  - # 1
    frequency:    2.9739581859
  - # 2
    frequency:    3.8519271617
  - # 3
    frequency:    4.1066537383
  - # 4
    frequency:    4.1732487704
  - # 5
    frequency:    4.4064898700
  - # 6
    frequency:    4.5344932052
  - # 7
    frequency:    7.2679416926
  - # 8
    frequency:    7.2788647766
  - # 9
    frequency:    8.4487042792
  - # 10
    frequency:    8.5366164584
  - # 11
    frequency:    9.8186827004
  - # 12
    frequency:    9.9904112011

- q-position: [    0.0000000,    0.4100000,    0.0000000 ]
  distance:    0.1147903
  band:
  - # 1
    frequency:    3.0551878290
  - # 2
    frequency:    3.8970324760
  - # 3
    frequency:    4.1593715176
  - # 4
    frequency:    4.1616720988
  - # 5
    frequency:    4.4378661402
  - # 6
    frequency:    4.4946869017
  - # 7
    frequency:    7.2713162282
  - # 8
    frequency:    7.2822732749
  - # 9
    frequency:    8.4391829341
  - # 10
    frequency:    8.5214448689
  - # 11
    frequency:    9.8415537065
  - # 12
    frequency:   10.0002929785

- q-position: [    0.0000000,    0.4200000,    0.0000000 ]
  distance:    0.1175901
  band:
  - # 1
    frequency:    3.1355071548
  - # 2
    frequency:    3.9402848332
  - # 3
    frequency:    4.1372964349
  - # 4
    frequency:    4.2133228945
  - # 5
    frequency:    4.4576840055
  - # 6
    frequency:    4.4639948695
  - # 7
    frequency:    7.2747745684
  - # 8
    frequency:    7.2853375792
  - # 9
    frequency:    8.4312007022
  - # 10
    frequency:    8.5069275352
  - # 11
    frequency:    9.8635568246
  - # 12
    frequency:   10.0080409233

- q-position: [    0.0000000,    0.4300000,    0.0000000 ]
  distance:    0.1203898
  band:
  - # 1
    frequency:    3.2148021881
  - # 2
    frequency:    3.9817194865
  - # 3
    frequency:    4.1070305174
  - # 4
    frequency:    4.2614562404
  - # 5
    frequency:    4.4237166907
  - # 6
    frequency:    4.4848709628
  - # 7
    frequency:    7.2781998513
  - # 8
    frequency:    7.2880257982
  - # 9
    frequency:    8.4248012059
  - # 10
    frequency:    8.4931508280
  - # 11
    frequency:    9.8845667580
  - # 12
    frequency:   10.0136395777

- q-position: [    0.0000000,    0.4400000,    0.0000000 ]
  distance:    0.1231896
  band:
  - # 1
    frequency:    3.2929544545
  - # 2
    frequency:    4.0213728974
  - # 3
    frequency:    4.0690423711
  - # 4
    frequency:    4.3059202237
  - # 5
    frequency:    4.3925459760
  - # 6
    frequency:    4.5005067493
  - # 7
    frequency:    7.2814884441
  - # 8
    frequency:    7.2903083586
  - # 9
    frequency:    8.4200137413
  - # 10
    frequency:    8.4802033403
  - # 11
    frequency:    9.9044587470
  - # 12
    frequency:   10.0170850013

- q-position: [    0.0000000,    0.4500000,    0.0000000 ]
  distance:    0.1259893
  band:
  - # 1
    frequency:    3.3698390369
  - # 2
    frequency:    4.0241922255
  - # 3
    frequency:    4.0592838465
  - # 4
    frequency:    4.3465617594
  - # 5
    frequency:    4.3635299586
  - # 6
    frequency:    4.5109322338
  - # 7
    frequency:    7.2845505661
  - # 8
    frequency:    7.2921585468
  - # 9
    frequency:    8.4168528110
  - # 10
    frequency:    8.4681751129
  - # 11
    frequency:    9.9231100570
  - # 12
    frequency:   10.0183848514

- q-position: [    0.0000000,    0.4600000,    0.0000000 ]
  distance:    0.1287891
  band:
  - # 1
    frequency:    3.4453216815
  - # 2
    frequency:    3.9735125988
  - # 3
    frequency:    4.0954954368
  - # 4
    frequency:    4.3358419920
  - # 5
    frequency:    4.3832276627
  - # 6
    frequency:    4.5161949715
  - # 7
    frequency:    7.2873104068
  - # 8
    frequency:    7.2935531299
  - # 9
    frequency:    8.4153180300
  - # 10
    frequency:    8.4571566655
  - # 11
    frequency:    9.9404014084
  - # 12
    frequency:   10.0175583932

- q-position: [    0.0000000,    0.4700000,    0.0000000 ]
  distance:    0.1315889
  band:
  - # 1
    frequency:    3.5192545375
  - # 2
    frequency:    3.9179951811
  - # 3
    frequency:    4.1300584072
  - # 4
    frequency:    4.3086831777
  - # 5
    frequency:    4.4157659361
  - # 6
    frequency:    4.5163595592
  - # 7
    frequency:    7.2897058297
  - # 8
    frequency:    7.2944730641
  - # 9
    frequency:    8.4153944133
  - # 10
    frequency:    8.4472378337
  - # 11
    frequency:    9.9562183217
  - # 12
    frequency:   10.0146364327

- q-position: [    0.0000000,    0.4800000,    0.0000000 ]
  distance:    0.1343886
  band:
  - # 1
    frequency:    3.5914699285
  - # 2
    frequency:    3.8584769494
  - # 3
    frequency:    4.1630363705
  - # 4
    frequency:    4.2813960766
  - # 5
    frequency:    4.4440272587
  - # 6
    frequency:    4.5115067556
  - # 7
    frequency:    7.2916877535
  - # 8
    frequency:    7.2949042940
  - # 9
    frequency:    8.4170530345
  - # 10
    frequency:    8.4385064247
  - # 11
    frequency:    9.9704523558
  - # 12
    frequency:   10.0096611625

- q-position: [    0.0000000,    0.4900000,    0.0000000 ]
  distance:    0.1371884
  band:
  - # 1
    frequency:    3.6617712875
  - # 2
    frequency:    3.7956170856
  - # 3
    frequency:    4.1945138547
  - # 4
    frequency:    4.2534879898
  - # 5
    frequency:    4.4678666485
  - # 6
    frequency:    4.5017322685
  - # 7
    frequency:    7.2932192992
  - # 8
    frequency:    7.2948386427
  - # 9
    frequency:    8.4202520192
  - # 10
    frequency:    8.4310467136
  - # 11
    frequency:    9.9830022263
  - # 12
    frequency:   10.0026859121

- q-position: [    0.0000000,    0.5000000,    0.0000000 ]
  distance:    0.1399882
  band:
  - # 1
    frequency:    3.7299200620
  - # 2
    frequency:    3.7299200620
  - # 3
    frequency:    4.2246083640
  - # 4
    frequency:    4.2246083640
  - # 5
    frequency:    4.4871452611
  - # 6
    frequency:    4.4871452611
  - # 7
    frequency:    7.2942747860
  - # 8
    frequency:    7.2942747860
  - # 9
    frequency:    8.4249378209
  - # 10
    frequency:    8.4249378209
  - # 11
    frequency:    9.9937747924
  - # 12
    frequency:    9.9937747924
