108  
4    

1    
  0.0055033144420597   0.0000000000000000   0.0083494628660661
  -0.0556611355    0.0000001297   -0.0636674131
   0.0035971745    0.0000001450   -0.0019295261
   0.0031059377    0.0000002148   -0.0016777323
  -0.0003345944    0.0002167002   -0.0018016131
   0.0017118184    0.0015012084   -0.0027109860
   0.0000659436    0.0001473041   -0.0016269934
  -0.0003346411   -0.0002163185   -0.0018016582
   0.0017118921   -0.0015008720   -0.0027110210
   0.0000659166   -0.0001470610   -0.0016270196
   0.0000507778    0.0000000510    0.0040313198
   0.0000479462    0.0000000681   -0.0017911532
  -0.0000484332    0.0000000699   -0.0017843269
  -0.0000633359    0.0000430442   -0.0017866915
  -0.0000782178   -0.0001360981   -0.0019187100
   0.0001763670   -0.0001181951   -0.0018943418
  -0.0000635366   -0.0000428497   -0.0017865768
  -0.0000782333    0.0001363197   -0.0019185813
   0.0001766088    0.0001185779   -0.0018941580
   0.0000142664    0.0000001001    0.0039675194
  -0.0000221316    0.0000001267   -0.0018455829
  -0.0000200648    0.0000001537   -0.0018415297
  -0.0000399976   -0.0000143165   -0.0018460434
  -0.0000619481   -0.0000772896   -0.0017774742
   0.0000133184    0.0000093095   -0.0019049114
  -0.0000400015    0.0000143663   -0.0018460692
  -0.0000619159    0.0000773427   -0.0017775373
   0.0000133341   -0.0000093485   -0.0019049350
  -0.0008583043    0.0004372129    0.0006798011
  -0.0001141915   -0.0000207865    0.0020144109
  -0.0003573528    0.0000615513    0.0010465255
  -0.0008583307   -0.0004372022    0.0006798355
  -0.0001142137    0.0000209209    0.0020144541
  -0.0003572784   -0.0000614809    0.0010465795
   0.0003135038    0.0000001434    0.0020288425
  -0.0003178640    0.0000000077    0.0017011347
   0.0002931438    0.0000000585    0.0020020790
  -0.0002905597    0.0003226275    0.0021476760
  -0.0000390742    0.0002833096    0.0019676261
   0.0003056855    0.0002168834    0.0021700276
  -0.0002912848   -0.0003229644    0.0021474774
  -0.0000393368   -0.0002827818    0.0019675196
   0.0003061122   -0.0002162175    0.0021699111
  -0.0003600484   -0.0000000486    0.0019559145
  -0.0000244296    0.0000000902    0.0023433063
   0.0003547008   -0.0000019943    0.0019791507
  -0.0009717324    0.0009307265    0.0031729845
   0.0000580105    0.0000597296    0.0018839104
   0.0030601655    0.0030704283    0.0058039094
  -0.0009717631   -0.0009304899    0.0031731127
   0.0000579666   -0.0000593752    0.0018840560
   0.0030602379   -0.0030701259    0.0058040266
  -0.0001200790    0.0000002006    0.0018296388
   0.0000557866    0.0000001239    0.0014499981
   0.0000201884    0.0000001522    0.0019388185
   0.0015435040    0.0000012614    0.0408286851
   0.0023717512    0.0000008177    0.0155250689
  -0.0014233432    0.0000002157    0.0146564240
  -0.0006734898    0.0018891514    0.0150930893
   0.0002424262    0.0000709246    0.0139833647
   0.0006921992   -0.0005125194    0.0142221647
  -0.0006739668   -0.0018878444    0.0150929442
   0.0002434012   -0.0000698062    0.0139832639
   0.0006917926    0.0005131500    0.0142222063
  -0.0000153797    0.0000002098    0.0129709178
   0.0003329723    0.0000004528    0.0146268239
  -0.0001099889    0.0000000915    0.0145518277
  -0.0000687871    0.0002242560    0.0146006561
  -0.0000823867   -0.0001249529    0.0145015433
   0.0001777380   -0.0001685785    0.0145509455
  -0.0000641856   -0.0002228131    0.0146003051
  -0.0000803084    0.0001247348    0.0145018057
   0.0001740590    0.0001697183    0.0145507248
  -0.0014564702   -0.0000001039    0.0227381363
  -0.0000638159   -0.0000007184    0.0146584993
  -0.0006883018   -0.0000011100    0.0144291490
   0.0002977290    0.0003079715    0.0145441907
   0.0001815276   -0.0001519185    0.0148792422
   0.0001795858    0.0001556530    0.0153406875
   0.0002973701   -0.0003070077    0.0145439590
   0.0001821733    0.0001526650    0.0148790364
   0.0001791459   -0.0001553112    0.0153405772
   0.0148822385   -0.0161729151   -0.0067373710
   0.0008122835    0.0007516874   -0.0147232205
   0.0047119622    0.0059410192   -0.0180528015
   0.0148819334    0.0161716577   -0.0067374975
   0.0008118510   -0.0007523402   -0.0147231943
   0.0047126816   -0.0059418527   -0.0180528577
  -0.0001594565   -0.0000018803   -0.0146323268
  -0.0000865155   -0.0000007285   -0.0152657491
   0.0013695359   -0.0000011343   -0.0148250891
  -0.0001734000    0.0001338538   -0.0140621825
  -0.0000610443    0.0000713780   -0.0146220094
   0.0001933817    0.0002072495   -0.0142548159
  -0.0001739692   -0.0001359536   -0.0140626751
  -0.0000611836   -0.0000733513   -0.0146223176
   0.0001939776   -0.0002086670   -0.0142551744
  -0.0001013827   -0.0000014318   -0.0146270523
   0.0000031321    0.0000005035   -0.0152884189
   0.0000700585   -0.0000008709   -0.0146269411
   0.0001885294   -0.0001739466   -0.0148278992
   0.0000248902    0.0000882226   -0.0148098451
  -0.0000869708   -0.0000423502   -0.0142588628
   0.0001880198    0.0001746379   -0.0148276964
   0.0000245754   -0.0000870151   -0.0148094747
  -0.0000861538    0.0000431757   -0.0142585815
  -0.0001278097   -0.0000009281   -0.0149131928
  -0.0000439746    0.0000002472   -0.0147646820
   0.0000630864   -0.0000004382   -0.0147032905

1    
 -0.0055033144420597   0.0000000000000000  -0.0083494628660661
   0.0548074653    0.0000001244    0.0595050294
  -0.0035642239    0.0000001664   -0.0018027567
  -0.0031052460    0.0000001268   -0.0020538411
   0.0003365355   -0.0002463433   -0.0019264511
  -0.0016792336   -0.0014796876   -0.0010283565
  -0.0000329104   -0.0001750763   -0.0020908866
   0.0003365761    0.0002464809   -0.0019265157
  -0.0016792250    0.0014797515   -0.0010284120
  -0.0000329517    0.0001752041   -0.0020909407
  -0.0000439035    0.0000001250   -0.0077048652
  -0.0000488771    0.0000001789   -0.0019411889
   0.0000488718    0.0000001118   -0.0019469472
   0.0000669825   -0.0000503474   -0.0019446548
   0.0001133077    0.0001244936   -0.0018140756
  -0.0001589662    0.0001083680   -0.0018415635
   0.0000669898    0.0000506865   -0.0019446907
   0.0001133105   -0.0001242430   -0.0018140640
  -0.0001589907   -0.0001080253   -0.0018416235
  -0.0000286105    0.0000000720   -0.0077408710
   0.0000270178    0.0000001627   -0.0018836836
   0.0000053313    0.0000000592   -0.0018894354
   0.0000412104    0.0000164186   -0.0018873630
   0.0000609118    0.0000727868   -0.0019492400
  -0.0000129627   -0.0000087249   -0.0018212940
   0.0000412668   -0.0000162095   -0.0018872974
   0.0000609182   -0.0000727214   -0.0019491986
  -0.0000130012    0.0000089464   -0.0018212182
   0.0008744677   -0.0004649148    0.0030566014
   0.0001090259    0.0000194544    0.0016991890
   0.0003385025   -0.0000721018    0.0026843948
   0.0008744005    0.0004651085    0.0030567539
   0.0001090743   -0.0000192454    0.0016993596
   0.0003385020    0.0000721912    0.0026845745
  -0.0003108107    0.0000001209    0.0016851735
   0.0003403622    0.0000000891    0.0020139987
  -0.0002911395    0.0000001857    0.0017088902
   0.0002434111   -0.0003172974    0.0015857827
   0.0000961830   -0.0003001805    0.0017539988
  -0.0002751304   -0.0002042112    0.0015678121
   0.0002433761    0.0003175294    0.0015856981
   0.0000961775    0.0003004192    0.0017539116
  -0.0002751365    0.0002043709    0.0015676485
   0.0003635773    0.0000000474    0.0017652499
   0.0000346194    0.0000000703    0.0014072586
  -0.0003704090    0.0000001924    0.0017415117
   0.0009612120   -0.0009249931    0.0005773266
  -0.0000586878   -0.0000599420    0.0018367708
  -0.0031152787   -0.0031205718   -0.0021361122
   0.0009611673    0.0009254349    0.0005773074
  -0.0000586533    0.0000604006    0.0018367484
  -0.0031152713    0.0031209376   -0.0021361601
   0.0001218054    0.0000001311    0.0018936353
  -0.0000657798    0.0000001265    0.0022752997
  -0.0000194361    0.0000001751    0.0017803589
  -0.0016021445    0.0000003985   -0.0100346342
  -0.0023639466   -0.0000003246    0.0138534036
   0.0014406176    0.0000002671    0.0147102297
   0.0006744789   -0.0018977640    0.0142838869
  -0.0002382988   -0.0000668334    0.0153835361
  -0.0007257395    0.0005481877    0.0151684022
   0.0006748266    0.0018982787    0.0142836667
  -0.0002380215    0.0000667788    0.0153834835
  -0.0007263903   -0.0005478701    0.0151682880
   0.0000658953    0.0000011950    0.0164193721
  -0.0002957795    0.0000002547    0.0147106735
   0.0000929275    0.0000014007    0.0147999431
   0.0000549149   -0.0002280922    0.0147564343
   0.0000301549    0.0001256464    0.0148424242
  -0.0001804496    0.0001760944    0.0148020323
   0.0000557340    0.0002286963    0.0147565405
   0.0000303770   -0.0001259062    0.0148426677
  -0.0001814372   -0.0001754928    0.0148021590
   0.0014723300   -0.0000001735    0.0058318813
   0.0000712797   -0.0000009365    0.0147139180
   0.0006950891   -0.0000001362    0.0149296304
  -0.0003039423   -0.0003106233    0.0148218788
  -0.0001889594    0.0001562992    0.0144946927
  -0.0001793812   -0.0001641653    0.0140205052
  -0.0003034927    0.0003101476    0.0148220544
  -0.0001889188   -0.0001570537    0.0144949476
  -0.0001799287    0.0001636762    0.0140207380
  -0.0145262015    0.0157434346   -0.0226396789
  -0.0008614888   -0.0007387261   -0.0146254303
  -0.0045796563   -0.0058622287   -0.0114129432
  -0.0145266182   -0.0157431595   -0.0226394610
  -0.0008611442    0.0007391848   -0.0146252233
  -0.0045795370    0.0058622965   -0.0114127287
   0.0001356389   -0.0000000920   -0.0147318238
   0.0000968156    0.0000001091   -0.0140769965
  -0.0013489007   -0.0000006181   -0.0145300597
   0.0001652372   -0.0001456919   -0.0152974657
   0.0000150911   -0.0000338963   -0.0147345234
  -0.0001653973   -0.0001871938   -0.0151141610
   0.0001645220    0.0001440486   -0.0152976714
   0.0000160506    0.0000319385   -0.0147347090
  -0.0001655024    0.0001849368   -0.0151144033
   0.0000811994   -0.0000003324   -0.0147304846
   0.0000046047   -0.0000001520   -0.0140828854
  -0.0000462025   -0.0000014343   -0.0147270177
  -0.0001842513    0.0001751655   -0.0145208176
  -0.0000177430   -0.0000901277   -0.0145462155
   0.0000535531    0.0000244612   -0.0151084898
  -0.0001850434   -0.0001753470   -0.0145207374
  -0.0000169766    0.0000900252   -0.0145463600
   0.0000535936   -0.0000250661   -0.0151087040
   0.0001257179    0.0000003876   -0.0144373196
   0.0000447205    0.0000002962   -0.0145684369
  -0.0000716003   -0.0000005799   -0.0146545848

55   
  0.0055033144420597   0.0000000000000000   0.0083494628660661
   0.0016646468    0.0000001673    0.0228101430
  -0.0001911607    0.0000001407   -0.0026913355
   0.0010750197    0.0000001314   -0.0002503144
  -0.0006548250   -0.0006317775   -0.0014659530
   0.0005698665    0.0004035764   -0.0022747369
   0.0003287387   -0.0001685948   -0.0026123314
  -0.0006548317    0.0006318519   -0.0014661757
   0.0005698658   -0.0004035025   -0.0022749620
   0.0003287435    0.0001686829   -0.0026125999
  -0.0016244617    0.0000001553    0.0070275044
  -0.0004402047    0.0000001708   -0.0021933638
  -0.0002078732    0.0000001048   -0.0018006000
   0.0002866134   -0.0001192056   -0.0019990564
   0.0005149386    0.0001783465   -0.0014200266
  -0.0001337731    0.0004397321   -0.0014499121
   0.0002866570    0.0001195641   -0.0019989471
   0.0005149020   -0.0001780072   -0.0014199013
  -0.0001337825   -0.0004393333   -0.0014497477
  -0.0000214557    0.0000000382   -0.0037999027
   0.0005932812    0.0000000633   -0.0018325629
  -0.0003163882    0.0000001324   -0.0020171721
  -0.0003911332    0.0004450058   -0.0019231541
   0.0006873335    0.0002712167   -0.0020790613
  -0.0002371988    0.0005930463   -0.0019016229
  -0.0003911392   -0.0004449363   -0.0019230706
   0.0006873800   -0.0002711622   -0.0020790103
  -0.0002372753   -0.0005930146   -0.0019015352
   0.0184260907   -0.0196988034    0.0074158387
   0.0007544397   -0.0000990181    0.0018318247
   0.0011166360    0.0023546653    0.0008287975
   0.0184260854    0.0196990658    0.0074158395
   0.0007544736    0.0000992320    0.0018318122
   0.0011166030   -0.0023544520    0.0008288023
   0.0008147638    0.0000000789    0.0013652798
  -0.0002955500    0.0000001476    0.0012437878
   0.0005537578    0.0000001554    0.0023065714
   0.0001463596   -0.0003040153    0.0023513739
   0.0000172662    0.0000634775    0.0018310715
  -0.0001322748    0.0000087073    0.0023380510
   0.0001463567    0.0003042378    0.0023514370
   0.0000172366   -0.0000631293    0.0018310820
  -0.0001322530   -0.0000084631    0.0023380545
  -0.0001102159    0.0000001143    0.0019562136
  -0.0006480423    0.0000001039    0.0017178947
   0.0000776751    0.0000000942    0.0017134773
  -0.0003158983    0.0003261289    0.0021005551
   0.0000764267    0.0000840462    0.0017421357
   0.0004649943    0.0004541976    0.0019078656
  -0.0003158804   -0.0003258107    0.0021005447
   0.0000764329   -0.0000836840    0.0017421751
   0.0004649781   -0.0004538601    0.0019078933
  -0.0000645231    0.0000001361    0.0017103996
  -0.0003117902    0.0000001964    0.0016561793
   0.0001038735    0.0000001145    0.0017751351
  -0.0428779768   -0.0000000498   -0.0648496638
  -0.0031405985    0.0000000515    0.0172375780
   0.0045855079    0.0000003539    0.0120605920
  -0.0001386260   -0.0038582630    0.0146394910
  -0.0001688488   -0.0021090338    0.0150098863
   0.0001764434    0.0017937646    0.0147152630
  -0.0001382486    0.0038596532    0.0146392771
  -0.0001693882    0.0021103695    0.0150097053
   0.0001763601   -0.0017919706    0.0147149793
   0.0008316178    0.0000002834    0.0144425341
  -0.0002728729    0.0000003026    0.0145354530
  -0.0001606416    0.0000003941    0.0146907998
  -0.0000945023   -0.0000784226    0.0146205642
   0.0005275192   -0.0001359956    0.0150449058
   0.0001955028    0.0004308911    0.0150129039
  -0.0000944657    0.0000783733    0.0146206524
   0.0005279591    0.0001356109    0.0150451284
   0.0001951235   -0.0004311759    0.0150132474
   0.0007779330    0.0000001032    0.0145524873
   0.0000430927    0.0000001652    0.0146773418
  -0.0003192056   -0.0000001705    0.0145741943
  -0.0001857399    0.0001417212    0.0146318617
   0.0002112290   -0.0003712460    0.0150016630
   0.0001052697    0.0005239153    0.0150296276
  -0.0001860275   -0.0001433365    0.0146321788
   0.0002113643    0.0003694830    0.0150019248
   0.0001052401   -0.0005256649    0.0150299556
  -0.0043815118    0.0009505097   -0.0064438033
   0.0020185435    0.0006390483   -0.0147485110
   0.0004682899    0.0038787309   -0.0033854192
  -0.0043814173   -0.0009507822   -0.0064435834
   0.0020185985   -0.0006393783   -0.0147483956
   0.0004680886   -0.0038790286   -0.0033852235
   0.0007491705   -0.0000003996   -0.0152638199
  -0.0022780810   -0.0000007192   -0.0143110792
   0.0021053634   -0.0000007511   -0.0142353605
  -0.0000715057   -0.0002967869   -0.0150966365
  -0.0003910300    0.0001693474   -0.0147056493
  -0.0002133510    0.0001779560   -0.0151260114
  -0.0000716306    0.0002963812   -0.0150966940
  -0.0003906041   -0.0001700282   -0.0147057890
  -0.0002136474   -0.0001786500   -0.0151261673
  -0.0003159777   -0.0000005894   -0.0148216244
   0.0001393066   -0.0000006009   -0.0154873815
   0.0000218976   -0.0000008629   -0.0145897371
  -0.0002212241   -0.0000934583   -0.0146155509
   0.0000169983   -0.0001204269   -0.0149345664
   0.0002575749    0.0005376871   -0.0145974045
  -0.0002211481    0.0000925064   -0.0146158058
   0.0000164710    0.0001195442   -0.0149347739
   0.0002580286   -0.0005382602   -0.0145975490
   0.0004929972    0.0000006764   -0.0147321585
  -0.0005498124    0.0000010808   -0.0146066979
   0.0002460873    0.0000008909   -0.0151198237

55   
 -0.0055033144420597   0.0000000000000000  -0.0083494628660661
  -0.0015245285    0.0000002334   -0.0281504190
   0.0002017330    0.0000001170   -0.0010235425
  -0.0011166028    0.0000002085   -0.0035216380
   0.0006545992    0.0006558777   -0.0022676713
  -0.0006076070   -0.0004465293   -0.0014439424
  -0.0003327863    0.0001590867   -0.0011157104
   0.0006545440   -0.0006555500   -0.0022676831
  -0.0006076427    0.0004470122   -0.0014439902
  -0.0003326971   -0.0001587058   -0.0011157057
   0.0015420772    0.0000001390   -0.0099014859
   0.0004497411   -0.0000000042   -0.0015322078
   0.0002003154    0.0000000959   -0.0019200652
  -0.0002803469    0.0001263002   -0.0017283887
  -0.0004964426   -0.0001669759   -0.0022928391
   0.0001273622   -0.0004263913   -0.0022692161
  -0.0002804276   -0.0001261524   -0.0017281274
  -0.0004964682    0.0001673040   -0.0022925702
   0.0001274740    0.0004265981   -0.0022689897
   0.0000299202    0.0000001267    0.0000503074
  -0.0005656705    0.0000001209   -0.0018949666
   0.0003113075    0.0000001101   -0.0017200745
   0.0003836882   -0.0004420275   -0.0018067862
  -0.0007136011   -0.0002874328   -0.0016581414
   0.0002007497   -0.0005900304   -0.0018324037
   0.0003836879    0.0004419107   -0.0018069952
  -0.0007136272    0.0002875102   -0.0016583790
   0.0002007674    0.0005901016   -0.0018326253
  -0.0179710870    0.0191864155   -0.0037878629
  -0.0007429809    0.0000719068    0.0019285887
  -0.0011374428   -0.0023865367    0.0027984603
  -0.0179709793   -0.0191862159   -0.0037879089
  -0.0007430541   -0.0000717708    0.0019285549
  -0.0011374804    0.0023868481    0.0027984334
  -0.0008076982    0.0000001378    0.0023999598
   0.0002672998    0.0000001661    0.0024399299
  -0.0005858700    0.0000000146    0.0014653886
  -0.0001467439    0.0003054020    0.0013703831
  -0.0000213443   -0.0000687869    0.0018820090
   0.0000685609   -0.0000067250    0.0013831900
  -0.0001466929   -0.0003049696    0.0013703485
  -0.0000213472    0.0000691928    0.0018819772
   0.0000685236    0.0000071838    0.0013831975
   0.0000987286    0.0000000837    0.0017584443
   0.0006780631    0.0000002658    0.0020049755
  -0.0000804746    0.0000000880    0.0019951411
   0.0003265410   -0.0003336947    0.0016233078
  -0.0000762842   -0.0000838863    0.0019831652
  -0.0004751789   -0.0004578212    0.0017973849
   0.0003266196    0.0003339709    0.0016233681
  -0.0000763216    0.0000840803    0.0019831873
  -0.0004752048    0.0004581675    0.0017974096
   0.0000757730    0.0000001349    0.0020142836
   0.0003607124    0.0000001570    0.0020809696
  -0.0001022843    0.0000000916    0.0019438286
   0.0422523701   -0.0000004603    0.0959523141
   0.0030760301    0.0000008724    0.0121698804
  -0.0047200976   -0.0000001986    0.0172592557
   0.0000829921    0.0038657682    0.0147050609
   0.0001624518    0.0020662064    0.0143863654
  -0.0001877471   -0.0017176252    0.0146991160
   0.0000819992   -0.0038645150    0.0147048915
   0.0001623396   -0.0020640311    0.0143861078
  -0.0001865662    0.0017190714    0.0146989099
  -0.0007991321   -0.0000011919    0.0148695702
   0.0002966634    0.0000000504    0.0148209231
   0.0001531895   -0.0000004215    0.0146732766
   0.0000982010    0.0000758390    0.0147405182
  -0.0005159528    0.0001548319    0.0143175268
  -0.0001742291   -0.0004300533    0.0143562329
   0.0000980013   -0.0000780793    0.0147410210
  -0.0005165651   -0.0001565150    0.0143180327
  -0.0001735212    0.0004283109    0.0143566794
  -0.0007961734   -0.0000009591    0.0149318067
  -0.0000356124    0.0000000018    0.0146941291
   0.0003120751   -0.0000003225    0.0147850094
   0.0001316083   -0.0001373812    0.0147391760
  -0.0002152144    0.0003623693    0.0143599350
  -0.0000968752   -0.0005165369    0.0143388119
   0.0001311343    0.0001381509    0.0147388958
  -0.0002157900   -0.0003609041    0.0143595984
  -0.0000959843    0.0005177189    0.0143385281
   0.0044481969   -0.0009692975   -0.0229845110
  -0.0019678606   -0.0006740955   -0.0146241504
  -0.0005302479   -0.0040250724   -0.0262284667
   0.0044490473    0.0009686383   -0.0229844666
  -0.0019686718    0.0006734786   -0.0146241528
  -0.0005303459    0.0040249453   -0.0262282524
  -0.0007082672   -0.0000020090   -0.0141173128
   0.0022138580   -0.0000023762   -0.0150309891
  -0.0020903430   -0.0000008935   -0.0151333009
  -0.0000013184    0.0003613538   -0.0143585067
   0.0003801933   -0.0001578518   -0.0146400444
   0.0003372566   -0.0000980848   -0.0142783279
  -0.0000002465   -0.0003617549   -0.0143587471
   0.0003794203    0.0001572177   -0.0146402798
   0.0003368699    0.0000982405   -0.0142783752
   0.0002988944    0.0000002701   -0.0145223370
  -0.0001288613   -0.0000003877   -0.0138908200
  -0.0000081043    0.0000008700   -0.0147546950
   0.0002182536    0.0000796569   -0.0147443789
  -0.0000283530    0.0001015182   -0.0144196948
  -0.0002540506   -0.0005283599   -0.0147484857
   0.0002188427   -0.0000792265   -0.0147440769
  -0.0000283629   -0.0001017642   -0.0144195324
  -0.0002546242    0.0005289230   -0.0147482317
  -0.0004215671   -0.0000001844   -0.0146148655
   0.0005734324   -0.0000009139   -0.0147222625
  -0.0001945071    0.0000002099   -0.0142181659
