phonopy:
  version: 2.15.0
  calculator: aims
  frequency_unit_conversion_factor: 15.633302
  symmetry_tolerance: 1.00000e-05
  configuration:
    atom_name: "Ba Zr S"
    dim: "3 3 3"
    mp: "64 64 64"
    tmax: "2000"
    tprop: ".true."

physical_unit:
  atomic_mass: "AMU"
  length: "angstrom"
  force_constants: "eV/angstrom^2"

space_group:
  type: "P4/nmm"
  number: 129
  Hall_symbol: "P 4ab 2ab -1ab"

supercell_matrix:
- [   3,   0,   0 ]
- [   0,   3,   0 ]
- [   0,   0,   3 ]

primitive_cell:
  lattice:
  - [     3.571730530000000,     0.000000000000000,     0.000000000000000 ] # a
  - [     0.000000000000000,     3.571730530000000,     0.000000000000000 ] # b
  - [     0.000000000000000,     0.000000000000000,     5.418921950000000 ] # c
  points:
  - symbol: S  # 1
    coordinates: [  0.000000000000000,  0.500000000000000,  0.702419810000000 ]
    mass: 32.065000
  - symbol: S  # 2
    coordinates: [  0.500000000000000,  0.000000000000000,  0.297580190000000 ]
    mass: 32.065000
  - symbol: Zr # 3
    coordinates: [  0.000000000000000,  0.500000000000000,  0.190518570000000 ]
    mass: 91.224000
  - symbol: Zr # 4
    coordinates: [  0.500000000000000,  0.000000000000000,  0.809481430000000 ]
    mass: 91.224000
  reciprocal_lattice: # without 2pi
  - [     0.279976328449392,     0.000000000000000,     0.000000000000000 ] # a*
  - [     0.000000000000000,     0.279976328449392,     0.000000000000000 ] # b*
  - [     0.000000000000000,     0.000000000000000,     0.184538550144646 ] # c*

unit_cell:
  lattice:
  - [     3.571730530000000,     0.000000000000000,     0.000000000000000 ] # a
  - [     0.000000000000000,     3.571730530000000,     0.000000000000000 ] # b
  - [     0.000000000000000,     0.000000000000000,     5.418921950000000 ] # c
  points:
  - symbol: S  # 1
    coordinates: [  0.000000000000000,  0.500000000000000, -0.297580190000000 ]
    mass: 32.065000
    reduced_to: 1
  - symbol: S  # 2
    coordinates: [  0.500000000000000,  0.000000000000000,  0.297580190000000 ]
    mass: 32.065000
    reduced_to: 2
  - symbol: Zr # 3
    coordinates: [  0.000000000000000,  0.500000000000000,  0.190518570000000 ]
    mass: 91.224000
    reduced_to: 3
  - symbol: Zr # 4
    coordinates: [  0.500000000000000,  0.000000000000000, -0.190518570000000 ]
    mass: 91.224000
    reduced_to: 4

supercell:
  lattice:
  - [    10.715191590000000,     0.000000000000000,     0.000000000000000 ] # a
  - [     0.000000000000000,    10.715191590000000,     0.000000000000000 ] # b
  - [     0.000000000000000,     0.000000000000000,    16.256765850000001 ] # c
  points:
  - symbol: S  # 1
    coordinates: [  0.000000000000000,  0.166666666666667,  0.900806603333333 ]
    mass: 32.065000
    reduced_to: 1
  - symbol: S  # 2
    coordinates: [  0.333333333333333,  0.166666666666667,  0.900806603333333 ]
    mass: 32.065000
    reduced_to: 1
  - symbol: S  # 3
    coordinates: [  0.666666666666667,  0.166666666666667,  0.900806603333333 ]
    mass: 32.065000
    reduced_to: 1
  - symbol: S  # 4
    coordinates: [  0.000000000000000,  0.500000000000000,  0.900806603333333 ]
    mass: 32.065000
    reduced_to: 1
  - symbol: S  # 5
    coordinates: [  0.333333333333333,  0.500000000000000,  0.900806603333333 ]
    mass: 32.065000
    reduced_to: 1
  - symbol: S  # 6
    coordinates: [  0.666666666666667,  0.500000000000000,  0.900806603333333 ]
    mass: 32.065000
    reduced_to: 1
  - symbol: S  # 7
    coordinates: [  0.000000000000000,  0.833333333333333,  0.900806603333333 ]
    mass: 32.065000
    reduced_to: 1
  - symbol: S  # 8
    coordinates: [  0.333333333333333,  0.833333333333333,  0.900806603333333 ]
    mass: 32.065000
    reduced_to: 1
  - symbol: S  # 9
    coordinates: [  0.666666666666667,  0.833333333333333,  0.900806603333333 ]
    mass: 32.065000
    reduced_to: 1
  - symbol: S  # 10
    coordinates: [  0.000000000000000,  0.166666666666667,  0.234139936666667 ]
    mass: 32.065000
    reduced_to: 1
  - symbol: S  # 11
    coordinates: [  0.333333333333333,  0.166666666666667,  0.234139936666667 ]
    mass: 32.065000
    reduced_to: 1
  - symbol: S  # 12
    coordinates: [  0.666666666666667,  0.166666666666667,  0.234139936666667 ]
    mass: 32.065000
    reduced_to: 1
  - symbol: S  # 13
    coordinates: [  0.000000000000000,  0.500000000000000,  0.234139936666667 ]
    mass: 32.065000
    reduced_to: 1
  - symbol: S  # 14
    coordinates: [  0.333333333333333,  0.500000000000000,  0.234139936666667 ]
    mass: 32.065000
    reduced_to: 1
  - symbol: S  # 15
    coordinates: [  0.666666666666667,  0.500000000000000,  0.234139936666667 ]
    mass: 32.065000
    reduced_to: 1
  - symbol: S  # 16
    coordinates: [  0.000000000000000,  0.833333333333333,  0.234139936666667 ]
    mass: 32.065000
    reduced_to: 1
  - symbol: S  # 17
    coordinates: [  0.333333333333333,  0.833333333333333,  0.234139936666667 ]
    mass: 32.065000
    reduced_to: 1
  - symbol: S  # 18
    coordinates: [  0.666666666666667,  0.833333333333333,  0.234139936666667 ]
    mass: 32.065000
    reduced_to: 1
  - symbol: S  # 19
    coordinates: [  0.000000000000000,  0.166666666666667,  0.567473270000000 ]
    mass: 32.065000
    reduced_to: 1
  - symbol: S  # 20
    coordinates: [  0.333333333333333,  0.166666666666667,  0.567473270000000 ]
    mass: 32.065000
    reduced_to: 1
  - symbol: S  # 21
    coordinates: [  0.666666666666667,  0.166666666666667,  0.567473270000000 ]
    mass: 32.065000
    reduced_to: 1
  - symbol: S  # 22
    coordinates: [  0.000000000000000,  0.500000000000000,  0.567473270000000 ]
    mass: 32.065000
    reduced_to: 1
  - symbol: S  # 23
    coordinates: [  0.333333333333333,  0.500000000000000,  0.567473270000000 ]
    mass: 32.065000
    reduced_to: 1
  - symbol: S  # 24
    coordinates: [  0.666666666666667,  0.500000000000000,  0.567473270000000 ]
    mass: 32.065000
    reduced_to: 1
  - symbol: S  # 25
    coordinates: [  0.000000000000000,  0.833333333333333,  0.567473270000000 ]
    mass: 32.065000
    reduced_to: 1
  - symbol: S  # 26
    coordinates: [  0.333333333333333,  0.833333333333333,  0.567473270000000 ]
    mass: 32.065000
    reduced_to: 1
  - symbol: S  # 27
    coordinates: [  0.666666666666667,  0.833333333333333,  0.567473270000000 ]
    mass: 32.065000
    reduced_to: 1
  - symbol: S  # 28
    coordinates: [  0.166666666666667,  0.000000000000000,  0.099193396666667 ]
    mass: 32.065000
    reduced_to: 28
  - symbol: S  # 29
    coordinates: [  0.500000000000000,  0.000000000000000,  0.099193396666667 ]
    mass: 32.065000
    reduced_to: 28
  - symbol: S  # 30
    coordinates: [  0.833333333333333,  0.000000000000000,  0.099193396666667 ]
    mass: 32.065000
    reduced_to: 28
  - symbol: S  # 31
    coordinates: [  0.166666666666667,  0.333333333333333,  0.099193396666667 ]
    mass: 32.065000
    reduced_to: 28
  - symbol: S  # 32
    coordinates: [  0.500000000000000,  0.333333333333333,  0.099193396666667 ]
    mass: 32.065000
    reduced_to: 28
  - symbol: S  # 33
    coordinates: [  0.833333333333333,  0.333333333333333,  0.099193396666667 ]
    mass: 32.065000
    reduced_to: 28
  - symbol: S  # 34
    coordinates: [  0.166666666666667,  0.666666666666667,  0.099193396666667 ]
    mass: 32.065000
    reduced_to: 28
  - symbol: S  # 35
    coordinates: [  0.500000000000000,  0.666666666666667,  0.099193396666667 ]
    mass: 32.065000
    reduced_to: 28
  - symbol: S  # 36
    coordinates: [  0.833333333333333,  0.666666666666667,  0.099193396666667 ]
    mass: 32.065000
    reduced_to: 28
  - symbol: S  # 37
    coordinates: [  0.166666666666667,  0.000000000000000,  0.432526730000000 ]
    mass: 32.065000
    reduced_to: 28
  - symbol: S  # 38
    coordinates: [  0.500000000000000,  0.000000000000000,  0.432526730000000 ]
    mass: 32.065000
    reduced_to: 28
  - symbol: S  # 39
    coordinates: [  0.833333333333333,  0.000000000000000,  0.432526730000000 ]
    mass: 32.065000
    reduced_to: 28
  - symbol: S  # 40
    coordinates: [  0.166666666666667,  0.333333333333333,  0.432526730000000 ]
    mass: 32.065000
    reduced_to: 28
  - symbol: S  # 41
    coordinates: [  0.500000000000000,  0.333333333333333,  0.432526730000000 ]
    mass: 32.065000
    reduced_to: 28
  - symbol: S  # 42
    coordinates: [  0.833333333333333,  0.333333333333333,  0.432526730000000 ]
    mass: 32.065000
    reduced_to: 28
  - symbol: S  # 43
    coordinates: [  0.166666666666667,  0.666666666666667,  0.432526730000000 ]
    mass: 32.065000
    reduced_to: 28
  - symbol: S  # 44
    coordinates: [  0.500000000000000,  0.666666666666667,  0.432526730000000 ]
    mass: 32.065000
    reduced_to: 28
  - symbol: S  # 45
    coordinates: [  0.833333333333333,  0.666666666666667,  0.432526730000000 ]
    mass: 32.065000
    reduced_to: 28
  - symbol: S  # 46
    coordinates: [  0.166666666666667,  0.000000000000000,  0.765860063333333 ]
    mass: 32.065000
    reduced_to: 28
  - symbol: S  # 47
    coordinates: [  0.500000000000000,  0.000000000000000,  0.765860063333333 ]
    mass: 32.065000
    reduced_to: 28
  - symbol: S  # 48
    coordinates: [  0.833333333333333,  0.000000000000000,  0.765860063333333 ]
    mass: 32.065000
    reduced_to: 28
  - symbol: S  # 49
    coordinates: [  0.166666666666667,  0.333333333333333,  0.765860063333333 ]
    mass: 32.065000
    reduced_to: 28
  - symbol: S  # 50
    coordinates: [  0.500000000000000,  0.333333333333333,  0.765860063333333 ]
    mass: 32.065000
    reduced_to: 28
  - symbol: S  # 51
    coordinates: [  0.833333333333333,  0.333333333333333,  0.765860063333333 ]
    mass: 32.065000
    reduced_to: 28
  - symbol: S  # 52
    coordinates: [  0.166666666666667,  0.666666666666667,  0.765860063333333 ]
    mass: 32.065000
    reduced_to: 28
  - symbol: S  # 53
    coordinates: [  0.500000000000000,  0.666666666666667,  0.765860063333333 ]
    mass: 32.065000
    reduced_to: 28
  - symbol: S  # 54
    coordinates: [  0.833333333333333,  0.666666666666667,  0.765860063333333 ]
    mass: 32.065000
    reduced_to: 28
  - symbol: Zr # 55
    coordinates: [  0.000000000000000,  0.166666666666667,  0.063506190000000 ]
    mass: 91.224000
    reduced_to: 55
  - symbol: Zr # 56
    coordinates: [  0.333333333333333,  0.166666666666667,  0.063506190000000 ]
    mass: 91.224000
    reduced_to: 55
  - symbol: Zr # 57
    coordinates: [  0.666666666666667,  0.166666666666667,  0.063506190000000 ]
    mass: 91.224000
    reduced_to: 55
  - symbol: Zr # 58
    coordinates: [  0.000000000000000,  0.500000000000000,  0.063506190000000 ]
    mass: 91.224000
    reduced_to: 55
  - symbol: Zr # 59
    coordinates: [  0.333333333333333,  0.500000000000000,  0.063506190000000 ]
    mass: 91.224000
    reduced_to: 55
  - symbol: Zr # 60
    coordinates: [  0.666666666666667,  0.500000000000000,  0.063506190000000 ]
    mass: 91.224000
    reduced_to: 55
  - symbol: Zr # 61
    coordinates: [  0.000000000000000,  0.833333333333333,  0.063506190000000 ]
    mass: 91.224000
    reduced_to: 55
  - symbol: Zr # 62
    coordinates: [  0.333333333333333,  0.833333333333333,  0.063506190000000 ]
    mass: 91.224000
    reduced_to: 55
  - symbol: Zr # 63
    coordinates: [  0.666666666666667,  0.833333333333333,  0.063506190000000 ]
    mass: 91.224000
    reduced_to: 55
  - symbol: Zr # 64
    coordinates: [  0.000000000000000,  0.166666666666667,  0.396839523333333 ]
    mass: 91.224000
    reduced_to: 55
  - symbol: Zr # 65
    coordinates: [  0.333333333333333,  0.166666666666667,  0.396839523333333 ]
    mass: 91.224000
    reduced_to: 55
  - symbol: Zr # 66
    coordinates: [  0.666666666666667,  0.166666666666667,  0.396839523333333 ]
    mass: 91.224000
    reduced_to: 55
  - symbol: Zr # 67
    coordinates: [  0.000000000000000,  0.500000000000000,  0.396839523333333 ]
    mass: 91.224000
    reduced_to: 55
  - symbol: Zr # 68
    coordinates: [  0.333333333333333,  0.500000000000000,  0.396839523333333 ]
    mass: 91.224000
    reduced_to: 55
  - symbol: Zr # 69
    coordinates: [  0.666666666666667,  0.500000000000000,  0.396839523333333 ]
    mass: 91.224000
    reduced_to: 55
  - symbol: Zr # 70
    coordinates: [  0.000000000000000,  0.833333333333333,  0.396839523333333 ]
    mass: 91.224000
    reduced_to: 55
  - symbol: Zr # 71
    coordinates: [  0.333333333333333,  0.833333333333333,  0.396839523333333 ]
    mass: 91.224000
    reduced_to: 55
  - symbol: Zr # 72
    coordinates: [  0.666666666666667,  0.833333333333333,  0.396839523333333 ]
    mass: 91.224000
    reduced_to: 55
  - symbol: Zr # 73
    coordinates: [  0.000000000000000,  0.166666666666667,  0.730172856666667 ]
    mass: 91.224000
    reduced_to: 55
  - symbol: Zr # 74
    coordinates: [  0.333333333333333,  0.166666666666667,  0.730172856666667 ]
    mass: 91.224000
    reduced_to: 55
  - symbol: Zr # 75
    coordinates: [  0.666666666666667,  0.166666666666667,  0.730172856666667 ]
    mass: 91.224000
    reduced_to: 55
  - symbol: Zr # 76
    coordinates: [  0.000000000000000,  0.500000000000000,  0.730172856666667 ]
    mass: 91.224000
    reduced_to: 55
  - symbol: Zr # 77
    coordinates: [  0.333333333333333,  0.500000000000000,  0.730172856666667 ]
    mass: 91.224000
    reduced_to: 55
  - symbol: Zr # 78
    coordinates: [  0.666666666666667,  0.500000000000000,  0.730172856666667 ]
    mass: 91.224000
    reduced_to: 55
  - symbol: Zr # 79
    coordinates: [  0.000000000000000,  0.833333333333333,  0.730172856666667 ]
    mass: 91.224000
    reduced_to: 55
  - symbol: Zr # 80
    coordinates: [  0.333333333333333,  0.833333333333333,  0.730172856666667 ]
    mass: 91.224000
    reduced_to: 55
  - symbol: Zr # 81
    coordinates: [  0.666666666666667,  0.833333333333333,  0.730172856666667 ]
    mass: 91.224000
    reduced_to: 55
  - symbol: Zr # 82
    coordinates: [  0.166666666666667,  0.000000000000000,  0.936493810000000 ]
    mass: 91.224000
    reduced_to: 82
  - symbol: Zr # 83
    coordinates: [  0.500000000000000,  0.000000000000000,  0.936493810000000 ]
    mass: 91.224000
    reduced_to: 82
  - symbol: Zr # 84
    coordinates: [  0.833333333333333,  0.000000000000000,  0.936493810000000 ]
    mass: 91.224000
    reduced_to: 82
  - symbol: Zr # 85
    coordinates: [  0.166666666666667,  0.333333333333333,  0.936493810000000 ]
    mass: 91.224000
    reduced_to: 82
  - symbol: Zr # 86
    coordinates: [  0.500000000000000,  0.333333333333333,  0.936493810000000 ]
    mass: 91.224000
    reduced_to: 82
  - symbol: Zr # 87
    coordinates: [  0.833333333333333,  0.333333333333333,  0.936493810000000 ]
    mass: 91.224000
    reduced_to: 82
  - symbol: Zr # 88
    coordinates: [  0.166666666666667,  0.666666666666667,  0.936493810000000 ]
    mass: 91.224000
    reduced_to: 82
  - symbol: Zr # 89
    coordinates: [  0.500000000000000,  0.666666666666667,  0.936493810000000 ]
    mass: 91.224000
    reduced_to: 82
  - symbol: Zr # 90
    coordinates: [  0.833333333333333,  0.666666666666667,  0.936493810000000 ]
    mass: 91.224000
    reduced_to: 82
  - symbol: Zr # 91
    coordinates: [  0.166666666666667,  0.000000000000000,  0.269827143333333 ]
    mass: 91.224000
    reduced_to: 82
  - symbol: Zr # 92
    coordinates: [  0.500000000000000,  0.000000000000000,  0.269827143333333 ]
    mass: 91.224000
    reduced_to: 82
  - symbol: Zr # 93
    coordinates: [  0.833333333333333,  0.000000000000000,  0.269827143333333 ]
    mass: 91.224000
    reduced_to: 82
  - symbol: Zr # 94
    coordinates: [  0.166666666666667,  0.333333333333333,  0.269827143333333 ]
    mass: 91.224000
    reduced_to: 82
  - symbol: Zr # 95
    coordinates: [  0.500000000000000,  0.333333333333333,  0.269827143333333 ]
    mass: 91.224000
    reduced_to: 82
  - symbol: Zr # 96
    coordinates: [  0.833333333333333,  0.333333333333333,  0.269827143333333 ]
    mass: 91.224000
    reduced_to: 82
  - symbol: Zr # 97
    coordinates: [  0.166666666666667,  0.666666666666667,  0.269827143333333 ]
    mass: 91.224000
    reduced_to: 82
  - symbol: Zr # 98
    coordinates: [  0.500000000000000,  0.666666666666667,  0.269827143333333 ]
    mass: 91.224000
    reduced_to: 82
  - symbol: Zr # 99
    coordinates: [  0.833333333333333,  0.666666666666667,  0.269827143333333 ]
    mass: 91.224000
    reduced_to: 82
  - symbol: Zr # 100
    coordinates: [  0.166666666666667,  0.000000000000000,  0.603160476666667 ]
    mass: 91.224000
    reduced_to: 82
  - symbol: Zr # 101
    coordinates: [  0.500000000000000,  0.000000000000000,  0.603160476666667 ]
    mass: 91.224000
    reduced_to: 82
  - symbol: Zr # 102
    coordinates: [  0.833333333333333,  0.000000000000000,  0.603160476666667 ]
    mass: 91.224000
    reduced_to: 82
  - symbol: Zr # 103
    coordinates: [  0.166666666666667,  0.333333333333333,  0.603160476666667 ]
    mass: 91.224000
    reduced_to: 82
  - symbol: Zr # 104
    coordinates: [  0.500000000000000,  0.333333333333333,  0.603160476666667 ]
    mass: 91.224000
    reduced_to: 82
  - symbol: Zr # 105
    coordinates: [  0.833333333333333,  0.333333333333333,  0.603160476666667 ]
    mass: 91.224000
    reduced_to: 82
  - symbol: Zr # 106
    coordinates: [  0.166666666666667,  0.666666666666667,  0.603160476666667 ]
    mass: 91.224000
    reduced_to: 82
  - symbol: Zr # 107
    coordinates: [  0.500000000000000,  0.666666666666667,  0.603160476666667 ]
    mass: 91.224000
    reduced_to: 82
  - symbol: Zr # 108
    coordinates: [  0.833333333333333,  0.666666666666667,  0.603160476666667 ]
    mass: 91.224000
    reduced_to: 82
