192  
22   

1    
 -0.0018849502134100   0.0018849502134100   0.0096381494793312
   0.0019983116   -0.0021022394   -0.0177876257
   0.0002426309    0.0005677036   -0.0011451779
   0.0000165035    0.0002077067    0.0000024212
   0.0002732485    0.0005115758   -0.0013720376
  -0.0005291829   -0.0003400168   -0.0011779252
   0.0000094433    0.0000175255   -0.0002448691
  -0.0000426031    0.0001542645    0.0001348849
  -0.0003040127    0.0002780671   -0.0004860317
  -0.0000747948   -0.0001027873   -0.0000719217
  -0.0000599754    0.0000401630    0.0001083038
  -0.0000309484    0.0001336545    0.0002317860
  -0.0000075119    0.0000018487   -0.0000936255
  -0.0005304931   -0.0003416076   -0.0013987464
  -0.0003383495    0.0003328721   -0.0004785124
  -0.0000525705    0.0001770545   -0.0000581408
   0.0000382185   -0.0000328657   -0.0006779616
   0.0002296983   -0.0004861158    0.0087783286
   0.0000136329    0.0009205935    0.0050970395
  -0.0000178332    0.0000416240    0.0041249938
   0.0000204629   -0.0007426876    0.0050449222
   0.0005696558   -0.0002363015    0.0047741994
   0.0001185191    0.0001504474    0.0045045046
  -0.0000367091   -0.0000216783    0.0041103047
   0.0000179494   -0.0001995486    0.0042838488
  -0.0001011723   -0.0001692637    0.0040303630
  -0.0001165173    0.0000034075    0.0041435936
  -0.0000412455   -0.0000515668    0.0038137466
  -0.0000419342   -0.0000934328    0.0039667426
  -0.0009979373   -0.0002572455    0.0050953128
  -0.0003404891    0.0002212029    0.0043645578
  -0.0000541519    0.0000093792    0.0039825461
  -0.0001897200   -0.0002653314    0.0044723937
  -0.0000831179   -0.0000983889   -0.0033582888
   0.0000209397    0.0002440492   -0.0036351601
  -0.0001746089    0.0002770133   -0.0038974635
  -0.0008542815   -0.0001379121   -0.0029601054
   0.0000627515    0.0000811837   -0.0036836161
   0.0000376766    0.0001726209   -0.0035412676
   0.0000655564    0.0000765689   -0.0039386863
   0.0000548309   -0.0000433386   -0.0038147999
   0.0001089573   -0.0000208520   -0.0039333995
   0.0000316380    0.0001985259   -0.0038672071
   0.0002726758    0.0002224634   -0.0041645504
   0.0006947255   -0.0001164776   -0.0036717693
   0.0001254503   -0.0005697863   -0.0029943079
   0.0000606617    0.0002621853   -0.0037031346
   0.0001829842    0.0009783272   -0.0033699289
   0.0003619600   -0.0003615706    0.0004835805
  -0.0003236775    0.0003659790    0.0036289578
  -0.0000409227   -0.0000809789    0.0003237381
   0.0000015905   -0.0001495661    0.0003521663
   0.0004336399   -0.0003756713    0.0036666615
   0.0000221481    0.0000600795    0.0003756189
  -0.0000066199   -0.0000331225    0.0001601905
   0.0000490628   -0.0000695485    0.0001813494
   0.0001097308    0.0000370567    0.0004005294
   0.0001092530    0.0000372273    0.0004003721
   0.0000486548   -0.0000689862    0.0001814115
  -0.0000068821   -0.0000337534    0.0001586285
   0.0000217147    0.0000598881    0.0003750769
   0.0004222523   -0.0003642173    0.0036852811
   0.0000014312   -0.0001489157    0.0003529272
  -0.0000409195   -0.0000816490    0.0003223000
  -0.0003283419    0.0003612292    0.0036292822
   0.0000875857    0.0005476773   -0.0025151474
  -0.0001025725   -0.0001340708   -0.0014965650
  -0.0000569692   -0.0003613697   -0.0011434488
   0.0003289043   -0.0004860951   -0.0023486023
  -0.0000633471    0.0000190347   -0.0013147793
  -0.0001411792   -0.0001633019   -0.0011842076
  -0.0000763203   -0.0001923855   -0.0010811446
   0.0000520066   -0.0001288777   -0.0011604749
  -0.0001164391   -0.0000247768   -0.0009716610
  -0.0001095477   -0.0001391208   -0.0010665366
  -0.0001317181   -0.0001727126   -0.0010615381
  -0.0001987882   -0.0001305532   -0.0010344230
  -0.0003947992    0.0003083810   -0.0017827912
  -0.0001021958   -0.0001831587   -0.0011541685
  -0.0001893674   -0.0002820002   -0.0010715622
  -0.0006690366   -0.0002766120   -0.0018257344
  -0.0004428380   -0.0000471041    0.0001057750
   0.0000403291   -0.0000517429    0.0008584592
   0.0001276743    0.0000458785    0.0007746101
  -0.0001658508    0.0005384303    0.0001499414
   0.0000315743    0.0000994873    0.0008958775
   0.0000978351    0.0000572307    0.0008689706
   0.0001202075    0.0000901685    0.0008620416
   0.0001136981    0.0002045627    0.0009575647
   0.0002810624    0.0001010973    0.0007681338
   0.0001531363    0.0000374489    0.0008476362
   0.0000884722    0.0000660800    0.0007430903
   0.0001658673    0.0002483571    0.0006122580
   0.0005611941   -0.0002589721   -0.0004204041
   0.0001724061   -0.0001310269    0.0007861393
   0.0001270295    0.0000946016    0.0004316425
   0.0003176763    0.0007805710   -0.0005780956
   0.0004432469    0.0010449620   -0.0007720314
   0.0001316594   -0.0002534585   -0.0009020215
   0.0005758170   -0.0014081607   -0.0008259012
   0.0013707089    0.0009130013   -0.0009968972
   0.0002408454    0.0002560916   -0.0009483426
   0.0001656600   -0.0001152230   -0.0009420499
   0.0003083382   -0.0002277080   -0.0009209093
   0.0003621192    0.0002274385   -0.0008709492
   0.0000154832    0.0001694391   -0.0009006060
   0.0000534384   -0.0000930065   -0.0009294941
  -0.0000258429   -0.0001321606   -0.0009027280
  -0.0000396564    0.0001965281   -0.0008310517
  -0.0003472186    0.0006127035   -0.0005417449
   0.0000326257   -0.0002159585   -0.0008743885
  -0.0005056588   -0.0009936586   -0.0006326900
  -0.0012118793    0.0008938097   -0.0005345702
   0.0009942056    0.0007334176   -0.0006851995
   0.0001354531    0.0001679959   -0.0009465395
   0.0003033570   -0.0001495345   -0.0009206519
   0.0014850289   -0.0003428011   -0.0008246510
   0.0001173187    0.0001918176   -0.0008576975
   0.0000635098    0.0001170538   -0.0009298985
   0.0000856229   -0.0000067318   -0.0009265874
   0.0001495448    0.0000761683   -0.0008585456
  -0.0004885573    0.0006040371   -0.0005017595
  -0.0000473859    0.0001550013   -0.0009053940
  -0.0002018858   -0.0001107231   -0.0009104347
  -0.0009912103   -0.0002387572   -0.0006729879
  -0.0006331561    0.0014685790   -0.0005747469
  -0.0000047265    0.0001784420   -0.0008836242
  -0.0000396221   -0.0002280615   -0.0008528115
  -0.0006500085   -0.0011370112   -0.0009506838
  -0.0013717006    0.0008278692    0.0013931925
  -0.0007010873   -0.0010677944    0.0012564141
  -0.0001584657   -0.0002892029    0.0010122773
  -0.0005402735    0.0005391259    0.0013456273
  -0.0002306242    0.0001236528    0.0010565885
  -0.0002170072   -0.0002040798    0.0009858665
  -0.0001376940   -0.0001661335    0.0009573564
  -0.0001756627    0.0000962917    0.0009868314
   0.0001713021    0.0001546610    0.0010153993
   0.0001175441   -0.0003005288    0.0009663188
  -0.0000253358   -0.0001884468    0.0009436495
   0.0000502380    0.0001836247    0.0009379175
   0.0011040549    0.0008494293    0.0009738613
   0.0003876026   -0.0014820387    0.0010638593
  -0.0000593706   -0.0003268525    0.0009841020
   0.0002529806    0.0009708501    0.0011170694
  -0.0007329378   -0.0012524657    0.0010048372
  -0.0001122979   -0.0004195331    0.0010194314
  -0.0000771130   -0.0000131360    0.0009869033
  -0.0007135009    0.0012459359    0.0013372090
  -0.0010623704   -0.0004306806    0.0012016052
  -0.0002753727   -0.0003022710    0.0009625829
  -0.0001199599   -0.0000364157    0.0009660456
  -0.0005606697    0.0004145838    0.0013704500
   0.0000770863   -0.0001149287    0.0010126133
   0.0000129453   -0.0001979084    0.0009449464
  -0.0000090193   -0.0000742397    0.0009399420
   0.0000448845    0.0000005782    0.0010128215
   0.0014137619   -0.0005369447    0.0010489015
   0.0002307958   -0.0003410437    0.0009515260
   0.0000622817   -0.0000235607    0.0009240759
   0.0009236982    0.0005462841    0.0011870473
  -0.0030970728   -0.0052443230    0.0004654237
  -0.0000658195   -0.0004363932    0.0009618106
  -0.0001453579    0.0009963681    0.0006835900
  -0.0047491454    0.0044174392    0.0017644513
  -0.0007307774   -0.0003118795    0.0008593032
  -0.0001643040   -0.0001319946    0.0009251545
  -0.0003086175    0.0001880742    0.0008107434
  -0.0010604314   -0.0001274728    0.0007030914
   0.0001206381   -0.0002392693    0.0005862684
  -0.0000644837   -0.0000800527    0.0007822439
   0.0000435161    0.0001007179    0.0007618944
   0.0004096914   -0.0001615067    0.0005818371
   0.0032284713   -0.0036010755   -0.0013190891
  -0.0000770989   -0.0002159107    0.0007769312
   0.0000596258    0.0007179974    0.0006675547
   0.0049321509    0.0028222542    0.0000842305
   0.0051424931    0.0030171974   -0.0016558511
   0.0002355288    0.0009181586   -0.0010285268
   0.0001149153   -0.0000452923   -0.0010199634
   0.0034159806   -0.0034164099   -0.0030941966
   0.0005891226    0.0000280813   -0.0011178358
   0.0002248719    0.0002987089   -0.0009152281
   0.0001251796    0.0000967498   -0.0009822634
   0.0003111464   -0.0000555795   -0.0011427276
  -0.0008808803    0.0000611604   -0.0010780776
  -0.0001290345    0.0003850977   -0.0009386460
   0.0000218538    0.0000423813   -0.0009274026
  -0.0005476759   -0.0001296285   -0.0009662860
  -0.0046042597    0.0046446872    0.0000086169
   0.0000361013    0.0011940197   -0.0010484646
   0.0001256560   -0.0002603243   -0.0008557335
  -0.0029145981   -0.0050913837   -0.0013389937

1    
  0.0018849502134100   0.0018849502134100  -0.0096381494793312
  -0.0019920205   -0.0019940881    0.0177487798
  -0.0002709114    0.0005591914    0.0013651793
  -0.0000750652    0.0001175361    0.0004620074
  -0.0002395417    0.0005027007    0.0011320316
   0.0005270272   -0.0002592573    0.0013472766
   0.0002734595    0.0003188302    0.0006572726
  -0.0000181750    0.0000853529    0.0004861754
   0.0000050042   -0.0000351695    0.0004444104
   0.0000586070   -0.0000453336    0.0004164182
   0.0000212690    0.0000361688    0.0004724798
   0.0000101557    0.0000840382    0.0005336724
   0.0000736448   -0.0000021439    0.0002704880
   0.0005259092   -0.0002597958    0.0011260568
  -0.0000291438    0.0000191898    0.0004525475
  -0.0000281942    0.0001081312    0.0002931435
   0.0003017293    0.0002678172    0.0002238420
  -0.0003565463   -0.0003517393   -0.0006235632
  -0.0001662959   -0.0006556853    0.0036194697
  -0.0000653428   -0.0000934997    0.0037567519
  -0.0001262229    0.0008360244    0.0028053820
  -0.0006857705   -0.0001458742    0.0035832061
  -0.0001813299   -0.0001420092    0.0042010108
  -0.0000294153   -0.0000905467    0.0038676480
  -0.0002028862    0.0000720211    0.0038729126
  -0.0000620822   -0.0000955143    0.0037618829
  -0.0000672213   -0.0000385393    0.0039235757
  -0.0000346236   -0.0001105923    0.0036093779
  -0.0000477361   -0.0000664050    0.0036968601
   0.0008568652   -0.0001334088    0.0028160083
   0.0000774311   -0.0001845135    0.0038998035
  -0.0000211939   -0.0001167008    0.0036890998
   0.0001719356    0.0001422921    0.0033958201
   0.0002789882    0.0003094191   -0.0044363033
   0.0000536962    0.0001180970   -0.0039287451
   0.0002428351   -0.0001289601   -0.0043623852
   0.0010005154   -0.0000139363   -0.0052385976
   0.0000570263    0.0001082753   -0.0039533575
   0.0000442916    0.0001133665   -0.0037458547
   0.0001148898    0.0000345094   -0.0041591255
   0.0000940564    0.0000303159   -0.0040835827
  -0.0001127868    0.0002506380   -0.0043446506
   0.0000386427    0.0001297862   -0.0041102153
  -0.0000264685   -0.0000697992   -0.0044685204
  -0.0005606896   -0.0000259966   -0.0048630981
  -0.0000211432    0.0010119126   -0.0052371332
   0.0000132250    0.0001274178   -0.0040716450
   0.0000033418   -0.0005956698   -0.0048452623
  -0.0002243200   -0.0002366344   -0.0089178166
  -0.0004101813   -0.0004121184   -0.0036332209
   0.0000129345   -0.0000957775   -0.0003771800
   0.0000326857   -0.0000332729   -0.0003949111
   0.0003151018    0.0003084648   -0.0036581315
  -0.0000939067    0.0000110327   -0.0003771684
  -0.0000380979   -0.0000399082   -0.0002010663
  -0.0000049463   -0.0000074570   -0.0002157549
  -0.0000306483    0.0000305388   -0.0003949313
  -0.0000312410    0.0000306762   -0.0003948786
  -0.0000054114   -0.0000068810   -0.0002157849
  -0.0000383685   -0.0000404842   -0.0002025961
  -0.0000942320    0.0000108301   -0.0003778949
   0.0003104577    0.0003131408   -0.0036580995
   0.0000325113   -0.0000325582   -0.0003948399
   0.0000128986   -0.0000963110   -0.0003780092
  -0.0004215570   -0.0004235640   -0.0036141893
  -0.0005522573   -0.0005542159    0.0009314239
  -0.0001574568   -0.0002410994   -0.0005419737
  -0.0001389333   -0.0000395045   -0.0008866819
  -0.0003245127    0.0004008698    0.0002045090
  -0.0002392703   -0.0001593647   -0.0005419331
  -0.0001181771   -0.0001200191   -0.0008146317
  -0.0001362158   -0.0001053747   -0.0008945515
  -0.0001898804   -0.0000813971   -0.0007932878
  -0.0000374124   -0.0001409753   -0.0008865811
  -0.0001033314   -0.0001381667   -0.0008945251
  -0.0001128355   -0.0001149518   -0.0009165529
  -0.0001046408   -0.0000729004   -0.0009601690
   0.0004028816   -0.0003264948    0.0002045760
  -0.0000794170   -0.0001918534   -0.0007932016
  -0.0000708167   -0.0001067993   -0.0009601433
   0.0001932955    0.0001912430   -0.0004134821
   0.0004222225    0.0004203018    0.0015200496
   0.0001590790    0.0001235451    0.0009697198
   0.0001504227    0.0000373060    0.0011352650
   0.0006290073   -0.0000965495    0.0021354001
   0.0001254672    0.0001571898    0.0009696458
   0.0001167949    0.0001149807    0.0010138569
   0.0001263902    0.0000911732    0.0010340580
   0.0001929897    0.0000883582    0.0010429397
   0.0000392753    0.0001484481    0.0011353480
   0.0000931269    0.0001244457    0.0010341478
   0.0001113968    0.0001093124    0.0011123505
  -0.0000100611    0.0000701801    0.0013852008
  -0.0000945922    0.0006270509    0.0021354555
   0.0000903134    0.0001911509    0.0010429450
   0.0000722477   -0.0000120660    0.0013851254
  -0.0003197662   -0.0003217605    0.0028665190
  -0.0003782508   -0.0013700033   -0.0010209935
   0.0000609688   -0.0000439849   -0.0010192885
  -0.0002599931    0.0010051971   -0.0012043169
  -0.0011030515    0.0007127544   -0.0009684295
  -0.0000923822   -0.0001917075   -0.0009566847
   0.0000230893   -0.0000011075   -0.0009722130
  -0.0000765948    0.0002435566   -0.0009878026
  -0.0001627792    0.0000904096   -0.0010204998
   0.0002133346   -0.0001152337   -0.0009995461
   0.0001386958   -0.0000151152   -0.0009825630
   0.0001818274    0.0001581141   -0.0010112693
   0.0002321804    0.0001129968   -0.0010672643
   0.0006748341   -0.0009561416   -0.0012395062
   0.0001633436   -0.0000681172   -0.0010416503
   0.0005726448    0.0006083216   -0.0014027630
   0.0013660268    0.0007165320   -0.0013979351
  -0.0013680763   -0.0003801915   -0.0010131945
  -0.0001897964   -0.0000942532   -0.0009489199
  -0.0001132626    0.0002113082   -0.0009919381
  -0.0009541638    0.0006728386   -0.0012317165
  -0.0000421733    0.0000590783   -0.0010114481
   0.0000007068    0.0000211903   -0.0009644377
  -0.0000131238    0.0001367071   -0.0009749774
  -0.0000662399    0.0001613698   -0.0010338979
   0.0010072465   -0.0002619734   -0.0011964311
   0.0002455743   -0.0000785159   -0.0009799208
   0.0001602598    0.0001796775   -0.0010034957
   0.0006103861    0.0005706005   -0.0013949197
   0.0007147443   -0.0011049910   -0.0009606320
   0.0000923536   -0.0001647338   -0.0010126122
   0.0001150582    0.0002300967   -0.0010594405
   0.0007185648    0.0013639534   -0.0013901017
   0.0012061627    0.0006368478    0.0005299557
   0.0003796321    0.0005361699    0.0004855837
  -0.0000277551   -0.0001407741    0.0008450498
   0.0004794940   -0.0010273527    0.0006486768
   0.0000412369    0.0000405686    0.0008204236
  -0.0000094810    0.0000857292    0.0008773331
  -0.0000523988   -0.0000878763    0.0009043266
   0.0000223059   -0.0001886917    0.0008879943
  -0.0003535724    0.0000178930    0.0008659333
  -0.0002673130    0.0001702762    0.0008994625
  -0.0001679430   -0.0000739056    0.0009135051
  -0.0002830870   -0.0002643464    0.0009295822
  -0.0013697097    0.0006290833    0.0010025106
  -0.0004504498    0.0009342468    0.0006856071
  -0.0001300444   -0.0001165768    0.0008668221
  -0.0005663500   -0.0014406670    0.0008679630
   0.0006388228    0.0012041819    0.0005221942
   0.0000425122    0.0000393138    0.0008125924
   0.0000199307   -0.0003556330    0.0008581067
   0.0006310865   -0.0013716927    0.0009947035
   0.0005380433    0.0003777049    0.0004777694
   0.0000875854   -0.0000113640    0.0008695005
   0.0001722630   -0.0002693234    0.0008916340
   0.0009361811   -0.0004524368    0.0006778000
  -0.0001387170   -0.0000297776    0.0008372791
  -0.0000857968   -0.0000544212    0.0008965551
  -0.0000717724   -0.0001700760    0.0009054787
  -0.0001144059   -0.0001321371    0.0008591758
  -0.0010252692    0.0004775166    0.0006408808
  -0.0001866850    0.0000203756    0.0008802273
  -0.0002621860   -0.0002851649    0.0009216871
  -0.0014385991   -0.0005684018    0.0008601731
   0.0045841660    0.0045857593   -0.0002997613
  -0.0000523582    0.0008232138    0.0009194254
  -0.0001069208   -0.0005813346    0.0010899107
   0.0029376977   -0.0050838122    0.0014608861
   0.0008150798   -0.0000494067    0.0009209661
   0.0000904606    0.0000916583    0.0009396347
   0.0000409819   -0.0002211415    0.0009709474
   0.0005915196   -0.0002044546    0.0010179576
  -0.0005775015   -0.0001115827    0.0010919387
  -0.0002107784    0.0000421967    0.0009720091
  -0.0001261284   -0.0001387760    0.0009507263
  -0.0003239358   -0.0001718386    0.0010780600
  -0.0050819326    0.0029349619    0.0014636652
  -0.0002034319    0.0005942857    0.0010293696
  -0.0001628750   -0.0003342786    0.0010786492
  -0.0034558282   -0.0034619369    0.0031689798
  -0.0032752210   -0.0032728931    0.0014269741
   0.0000128852   -0.0001356909   -0.0006167888
  -0.0000111661    0.0007628522   -0.0007676959
  -0.0048643719    0.0031134353   -0.0003094550
  -0.0001425467    0.0000177555   -0.0006213675
   0.0000546912    0.0000594389   -0.0007262536
  -0.0000202815    0.0002189455   -0.0007924743
  -0.0003887248    0.0000718428   -0.0006369278
   0.0007700534   -0.0000156674   -0.0007632523
   0.0002211447   -0.0000237466   -0.0007784096
   0.0002757538    0.0002658127   -0.0009127075
   0.0009988454    0.0001326898   -0.0009045621
   0.0031153451   -0.0048654598   -0.0003097035
   0.0000745664   -0.0003860998   -0.0006416225
   0.0001388635    0.0009964409   -0.0008979510
   0.0047335229    0.0047292763   -0.0020897439

17   
 -0.0018849502134100   0.0018849502134100   0.0096381494793312
   0.0000332207   -0.0006791094    0.0046281364
  -0.0002013669   -0.0002475599    0.0010317136
  -0.0000880652    0.0002749813    0.0004061245
   0.0000274015    0.0007388293    0.0007602176
  -0.0005531532   -0.0004592238    0.0012978867
   0.0001283925    0.0001289350    0.0007709315
   0.0000366415    0.0002357319    0.0004808954
  -0.0001302349    0.0001292126    0.0002668069
   0.0000378618   -0.0001828024    0.0003193641
   0.0000548698    0.0001010865    0.0004377987
   0.0000097900    0.0001496007    0.0004918662
   0.0000283288    0.0000063438    0.0002075687
   0.0004460861   -0.0002588961    0.0004295430
  -0.0000530164    0.0000272927    0.0001412752
  -0.0000693917    0.0001813393    0.0002356482
   0.0001505167    0.0001099886   -0.0000482365
   0.0040821991   -0.0043528967   -0.0425619465
   0.0001766182    0.0005426668    0.0031185685
  -0.0000382513    0.0000161488    0.0038250789
   0.0002095095    0.0005342382    0.0028796083
  -0.0006522102   -0.0004557822    0.0030440402
   0.0000627017    0.0000786695    0.0040818110
  -0.0000086007   -0.0000112418    0.0039070225
  -0.0002231902    0.0001093764    0.0038720614
  -0.0001264319   -0.0001937543    0.0037899920
  -0.0001131137    0.0000106951    0.0039481024
  -0.0000436442   -0.0000478033    0.0036350147
  -0.0000761809   -0.0000784669    0.0037383172
  -0.0006093153   -0.0004500212    0.0028641370
  -0.0004775815    0.0003868184    0.0038151407
  -0.0000610012   -0.0000195828    0.0037315529
  -0.0001301416   -0.0001827769    0.0036655701
   0.0020578643    0.0019346671   -0.0031457150
   0.0001488145    0.0003300550   -0.0038411634
   0.0001364909    0.0000060222   -0.0041960875
   0.0018821086   -0.0018951869   -0.0040183492
   0.0001756599    0.0001537500   -0.0038949323
   0.0000761584    0.0001938012   -0.0036803283
   0.0001060495    0.0000579261   -0.0041010913
   0.0001655619   -0.0001171802   -0.0040530872
  -0.0001170740    0.0001573660   -0.0041196726
  -0.0000168740    0.0002163070   -0.0040223201
   0.0000733248    0.0000655316   -0.0043556931
  -0.0000409230   -0.0001469000   -0.0042725730
  -0.0019954258    0.0020809044   -0.0024941683
  -0.0000588934    0.0003512652   -0.0039233933
   0.0000226770    0.0000046663   -0.0042270748
  -0.0018060499   -0.0020701802   -0.0033351715
   0.0001688748    0.0006682487   -0.0026893681
   0.0000054219   -0.0004379921   -0.0007796892
   0.0000339976   -0.0001841741   -0.0003043924
   0.0004678190    0.0000011820   -0.0021471407
  -0.0003966264    0.0000851223   -0.0007270886
  -0.0000629422   -0.0000746660   -0.0002569491
   0.0000109792   -0.0000711031   -0.0001759289
   0.0000703212    0.0000536362   -0.0002828937
   0.0000630831    0.0000555471   -0.0000318409
   0.0000064671   -0.0000440859   -0.0001390942
  -0.0000158049   -0.0000495365   -0.0001355750
  -0.0000241662    0.0000304165   -0.0000831334
   0.0001122678    0.0003723076   -0.0011510572
   0.0000563701   -0.0001521085   -0.0001429083
  -0.0000243424   -0.0000976429   -0.0001531560
  -0.0005437853   -0.0000934461   -0.0011124008
  -0.0005194173    0.0004224859    0.0112743239
  -0.0001784898   -0.0008453828   -0.0010221214
  -0.0001086169   -0.0002465066   -0.0009780977
  -0.0001418118    0.0004367448   -0.0007884505
  -0.0006552716    0.0000150034   -0.0005828408
  -0.0002778799   -0.0002817741   -0.0009276809
  -0.0001286355   -0.0001777562   -0.0009565209
  -0.0001343718   -0.0000297862   -0.0007884466
  -0.0001191944   -0.0000576489   -0.0008881847
  -0.0001029097   -0.0001556915   -0.0009491475
  -0.0001160564   -0.0001628819   -0.0009638053
  -0.0001493063   -0.0000887968   -0.0009678882
   0.0006017409    0.0000456994   -0.0010249642
   0.0001118580   -0.0003378955   -0.0011008779
  -0.0001027262   -0.0002144380   -0.0009820921
  -0.0000228569    0.0000336436   -0.0010534985
  -0.0007796939    0.0000860819    0.0048195859
   0.0000819079    0.0000096025    0.0009891203
   0.0001230773   -0.0000471353    0.0010311684
   0.0002268166    0.0001001274    0.0043816819
   0.0001020072    0.0001746354    0.0010062031
   0.0000854797    0.0000571530    0.0009878985
   0.0001368734    0.0000549270    0.0010066037
   0.0002245014    0.0001641591    0.0011161515
   0.0002151749    0.0001385665    0.0010285878
   0.0001609387    0.0000311914    0.0010172876
   0.0001194835    0.0000910735    0.0010078282
   0.0001281093    0.0001899973    0.0011087752
   0.0012204662   -0.0009061353    0.0055913612
   0.0001365197   -0.0000387087    0.0010424924
   0.0000858036    0.0000344105    0.0010577388
   0.0001878962    0.0010653588    0.0050504694
   0.0000833877   -0.0019848506   -0.0023925948
   0.0001010347   -0.0005546252   -0.0011091312
   0.0001304742    0.0000239270   -0.0012369532
   0.0001410447    0.0027081899   -0.0024756264
  -0.0001574974   -0.0001823429   -0.0010579429
   0.0000273902   -0.0002105438   -0.0009976539
   0.0000633286    0.0000413821   -0.0009896484
  -0.0000537885    0.0004903698   -0.0010720529
   0.0000916536    0.0000161066   -0.0009806886
   0.0000937376   -0.0001101888   -0.0009782826
   0.0000743478    0.0000058704   -0.0009787200
   0.0000448888    0.0002282708   -0.0010009719
   0.0003650995   -0.0000501588   -0.0011787366
   0.0001615438   -0.0002890258   -0.0009871585
   0.0001162815   -0.0000897062   -0.0010942847
   0.0002492077    0.0005702078   -0.0012584741
  -0.0022374627    0.0002222665   -0.0023016945
  -0.0002958418   -0.0001700127   -0.0010759970
   0.0000269770    0.0000081101   -0.0009985832
   0.0000410070    0.0003201282   -0.0011957878
  -0.0002814235    0.0001499376   -0.0010058109
  -0.0001021665    0.0000105754   -0.0009817606
  -0.0000018378    0.0000443128   -0.0009761479
  -0.0000228083    0.0001731836   -0.0009770913
   0.0002774261    0.0001730660   -0.0011459121
   0.0002061622    0.0000137172   -0.0009996139
   0.0000422354    0.0000256756   -0.0009869010
  -0.0001310198    0.0001647716   -0.0011390873
   0.0023352410    0.0002883349   -0.0024047469
   0.0003409924   -0.0001669904   -0.0011249789
   0.0000807401   -0.0000516413   -0.0010444377
   0.0002594441    0.0003089919   -0.0013054682
  -0.0016162920    0.0011956448    0.0039464163
   0.0003480519    0.0007582431    0.0010248931
  -0.0000541965   -0.0004357602    0.0007870849
   0.0005136693   -0.0013556569    0.0009073411
   0.0001265391    0.0002085810    0.0008870998
   0.0000411417    0.0001212068    0.0008910334
  -0.0000414239   -0.0002104793    0.0009023559
   0.0001058273   -0.0002634078    0.0009077124
  -0.0001928510    0.0001663267    0.0009697408
  -0.0001737635    0.0000387806    0.0009579089
  -0.0001443103   -0.0001842928    0.0009258733
  -0.0002172058   -0.0001649101    0.0009403731
   0.0001649182    0.0011422244    0.0033820116
  -0.0006492117    0.0003155480    0.0013854795
  -0.0001448021   -0.0003059733    0.0009207602
  -0.0008372579   -0.0009923580    0.0012512995
  -0.0008847948   -0.0002853237    0.0032498440
  -0.0000104789   -0.0000676686    0.0008985896
  -0.0000518062   -0.0003922167    0.0009123630
  -0.0009361649    0.0014953699    0.0040692882
   0.0008047733    0.0006908969    0.0010889380
   0.0000054136   -0.0000441565    0.0008715213
   0.0001789554   -0.0003457258    0.0009052631
   0.0013612801   -0.0006349597    0.0009867970
  -0.0000845504   -0.0000002010    0.0008137519
  -0.0000388162   -0.0000915739    0.0008970992
  -0.0000126017   -0.0001981275    0.0009099384
   0.0000496615   -0.0000927197    0.0009046538
  -0.0002953838    0.0005284353    0.0013105040
  -0.0001059965   -0.0000623919    0.0009287718
  -0.0002642214   -0.0003060227    0.0009282072
  -0.0009281371   -0.0004941478    0.0011863483
  -0.0001610075   -0.0004482760    0.0140565197
  -0.0000847004    0.0017075797    0.0014276172
  -0.0001350499    0.0003503686    0.0010522430
  -0.0001975375   -0.0019989353    0.0021657536
   0.0016921333   -0.0002914493    0.0010907878
   0.0002632852    0.0002589516    0.0010893671
  -0.0000620830    0.0000718303    0.0009848888
  -0.0000521593   -0.0004201520    0.0009729577
  -0.0000231179   -0.0002363417    0.0008158333
  -0.0001162179    0.0000242129    0.0009540787
  -0.0000631080    0.0000290692    0.0009248111
   0.0000847188   -0.0001949337    0.0008859083
  -0.0018579827   -0.0004105352    0.0018436969
  -0.0004376917    0.0002057640    0.0011159967
  -0.0000927030    0.0002395905    0.0009533465
  -0.0001976623   -0.0004164751    0.0017891866
  -0.0039932146   -0.0065053138   -0.0011542845
   0.0001266222    0.0000078527   -0.0003369908
   0.0000531229    0.0010854960   -0.0007626896
  -0.0064227007    0.0063343702    0.0009261251
  -0.0003392554   -0.0000963824   -0.0003626388
   0.0000854000    0.0001203230   -0.0006997457
  -0.0000721104    0.0003750837   -0.0008094384
  -0.0007321329   -0.0000338279   -0.0007710257
   0.0001506029   -0.0000225763   -0.0009045692
   0.0001279955    0.0001621982   -0.0008425979
   0.0002403384    0.0002713231   -0.0008954121
   0.0004511394   -0.0000544920   -0.0009460278
   0.0039826478   -0.0040771497   -0.0040658095
   0.0000300180    0.0002051954   -0.0008058894
   0.0001688625    0.0008038954   -0.0008562893
   0.0065197163    0.0040063615   -0.0019928670

17   
  0.0018849502134100  -0.0018849502134100  -0.0096381494793312
  -0.0000385915    0.0006793668   -0.0046806757
   0.0001722878    0.0003093714   -0.0008048161
   0.0000320897   -0.0001683734    0.0000421319
   0.0000063310   -0.0007884677   -0.0009969206
   0.0005527980    0.0004535634   -0.0011083622
  -0.0001686477   -0.0000779452   -0.0003591973
  -0.0000973406   -0.0001458969    0.0001277396
   0.0001605167   -0.0001856846   -0.0003043821
  -0.0000496881    0.0001862538    0.0000382305
  -0.0000929285   -0.0000527610    0.0001431250
  -0.0000328868   -0.0000249214    0.0002640180
   0.0000377829   -0.0000354031   -0.0000307540
  -0.0004486537    0.0002519759   -0.0006776720
   0.0000089591    0.0000312324   -0.0001629999
  -0.0000120871   -0.0000466405   -0.0000132792
  -0.0001391935   -0.0001667232   -0.0004090986
  -0.0043725981    0.0043839520    0.0502752953
  -0.0003352006   -0.0006069424    0.0053565385
  -0.0000375147   -0.0002382020    0.0040043994
  -0.0003146897   -0.0007070784    0.0051364590
   0.0005271733    0.0003368030    0.0053653202
  -0.0002194427   -0.0001566447    0.0045692543
  -0.0000531397   -0.0002148463    0.0040498009
   0.0001255974   -0.0002868655    0.0043140845
  -0.0000322483    0.0000572317    0.0040497719
  -0.0000662475   -0.0000906813    0.0041207231
  -0.0000365617   -0.0001840860    0.0037670932
  -0.0000166562   -0.0000947617    0.0038975452
   0.0004780481    0.0003293122    0.0051670318
   0.0003103742   -0.0004464069    0.0044244744
  -0.0000216898   -0.0002115113    0.0038886253
   0.0000271001    0.0000209099    0.0041531026
  -0.0019264827   -0.0017465533   -0.0046913828
  -0.0000802601   -0.0000910623   -0.0037744856
   0.0000264835    0.0000473461   -0.0040880752
  -0.0017188561    0.0019989753   -0.0040528290
  -0.0000590915    0.0000232044   -0.0037700595
   0.0000015515    0.0000221775   -0.0036274695
   0.0000788390    0.0000081367   -0.0039955401
  -0.0000123267    0.0002325329   -0.0037971700
   0.0002026963    0.0000211902   -0.0041292391
   0.0000914355   -0.0000018505   -0.0039762848