calculator: aims
length_unit: angstrom
nqpoint: 510    
npath: 10     
segment_nqpoint:
- 51
- 51
- 51
- 51
- 51
- 51
- 51
- 51
- 51
- 51
labels:
- [ 'G', 'X' ]
- [ 'X', 'W' ]
- [ 'W', 'K' ]
- [ 'K', 'G' ]
- [ 'G', 'L' ]
- [ 'L', 'U' ]
- [ 'U', 'W' ]
- [ 'W', 'L' ]
- [ 'L', 'K:' ]
- [ 'U', 'X' ]
reciprocal_lattice:
- [  -0.09395946,   0.09395946,   0.09395946 ] # a*
- [   0.09395946,  -0.09395946,   0.09395946 ] # b*
- [   0.09395946,   0.09395946,  -0.09395946 ] # c*
natom: 14     
lattice:
- [     0.000000000000000,     5.321443800000000,     5.321443800000000 ] # a
- [     5.321443800000000,     0.000000000000000,     5.321443800000000 ] # b
- [     5.321443800000000,     5.321443800000000,     0.000000000000000 ] # c
points:
- symbol: S  # 1
  coordinates: [  0.743831960000000,  0.743831960000000,  0.743831960000000 ]
  mass: 32.065000
- symbol: S  # 2
  coordinates: [  0.743831960000000,  0.743831960000000,  0.268504120000000 ]
  mass: 32.065000
- symbol: S  # 3
  coordinates: [  0.743831960000000,  0.268504120000000,  0.743831960000000 ]
  mass: 32.065000
- symbol: S  # 4
  coordinates: [  0.268504120000000,  0.743831960000000,  0.743831960000000 ]
  mass: 32.065000
- symbol: S  # 5
  coordinates: [  0.256168040000000,  0.256168040000000,  0.731495880000000 ]
  mass: 32.065000
- symbol: S  # 6
  coordinates: [  0.256168040000000,  0.256168040000000,  0.256168040000000 ]
  mass: 32.065000
- symbol: S  # 7
  coordinates: [  0.256168040000000,  0.731495880000000,  0.256168040000000 ]
  mass: 32.065000
- symbol: S  # 8
  coordinates: [  0.731495880000000,  0.256168040000000,  0.256168040000000 ]
  mass: 32.065000
- symbol: Zr # 9
  coordinates: [  0.125000000000000,  0.125000000000000,  0.125000000000000 ]
  mass: 91.224000
- symbol: Zr # 10
  coordinates: [  0.875000000000000,  0.875000000000000,  0.875000000000000 ]
  mass: 91.224000
- symbol: Zr # 11
  coordinates: [  0.500000000000000,  0.500000000000000,  0.500000000000000 ]
  mass: 91.224000
- symbol: Zr # 12
  coordinates: [  0.500000000000000,  0.500000000000000,  0.000000000000000 ]
  mass: 91.224000
- symbol: Zr # 13
  coordinates: [  0.500000000000000,  0.000000000000000,  0.500000000000000 ]
  mass: 91.224000
- symbol: Zr # 14
  coordinates: [  0.000000000000000,  0.500000000000000,  0.500000000000000 ]
  mass: 91.224000

phonon:
- q-position: [    0.0000000,    0.0000000,    0.0000000 ]
  distance:    0.0000000
  band:
  - # 1
    frequency:   -3.0594062745
  - # 2
    frequency:   -2.3135386809
  - # 3
    frequency:   -2.3135386809
  - # 4
    frequency:   -2.3135386809
  - # 5
    frequency:   -1.8847826272
  - # 6
    frequency:   -1.8847826272
  - # 7
    frequency:   -1.7367072620
  - # 8
    frequency:   -1.7367072620
  - # 9
    frequency:   -1.7367072620
  - # 10
    frequency:    0.0000000540
  - # 11
    frequency:    0.0000000763
  - # 12
    frequency:    0.0000001553
  - # 13
    frequency:    3.3534687166
  - # 14
    frequency:    3.3534687166
  - # 15
    frequency:    3.3534687166
  - # 16
    frequency:    4.5417490582
  - # 17
    frequency:    4.5417490582
  - # 18
    frequency:    4.5417490582
  - # 19
    frequency:    6.2877157912
  - # 20
    frequency:    6.2877157912
  - # 21
    frequency:    6.2877157912
  - # 22
    frequency:    6.9660344510
  - # 23
    frequency:    6.9660344510
  - # 24
    frequency:    6.9660344510
  - # 25
    frequency:    7.0150549413
  - # 26
    frequency:    7.0150549413
  - # 27
    frequency:    7.2674655409
  - # 28
    frequency:    7.2674655409
  - # 29
    frequency:    7.2746788011
  - # 30
    frequency:    7.2746788011
  - # 31
    frequency:    7.2746788011
  - # 32
    frequency:    7.7203758427
  - # 33
    frequency:    7.7203758427
  - # 34
    frequency:    7.7203758427
  - # 35
    frequency:   11.3912635947
  - # 36
    frequency:   11.5322390514
  - # 37
    frequency:   11.5322390514
  - # 38
    frequency:   11.5322390514
  - # 39
    frequency:   11.5402048836
  - # 40
    frequency:   11.5402048836
  - # 41
    frequency:   11.5402048836
  - # 42
    frequency:   11.8816178351

- q-position: [    0.0100000,    0.0000000,    0.0100000 ]
  distance:    0.0018792
  band:
  - # 1
    frequency:   -3.0595131888
  - # 2
    frequency:   -2.3138690625
  - # 3
    frequency:   -2.3138690625
  - # 4
    frequency:   -2.3130313814
  - # 5
    frequency:   -1.8848815624
  - # 6
    frequency:   -1.8843873414
  - # 7
    frequency:   -1.7364767963
  - # 8
    frequency:   -1.7364767963
  - # 9
    frequency:   -1.7363425008
  - # 10
    frequency:    0.0314426896
  - # 11
    frequency:    0.0314426896
  - # 12
    frequency:    0.0999451240
  - # 13
    frequency:    3.3538863558
  - # 14
    frequency:    3.3539300110
  - # 15
    frequency:    3.3539300110
  - # 16
    frequency:    4.5412012061
  - # 17
    frequency:    4.5415198843
  - # 18
    frequency:    4.5415198843
  - # 19
    frequency:    6.2878869263
  - # 20
    frequency:    6.2878869263
  - # 21
    frequency:    6.2879712586
  - # 22
    frequency:    6.9656844381
  - # 23
    frequency:    6.9663014073
  - # 24
    frequency:    6.9663014073
  - # 25
    frequency:    7.0149820795
  - # 26
    frequency:    7.0154849085
  - # 27
    frequency:    7.2663350990
  - # 28
    frequency:    7.2674598462
  - # 29
    frequency:    7.2743585647
  - # 30
    frequency:    7.2743585647
  - # 31
    frequency:    7.2758652624
  - # 32
    frequency:    7.7199095583
  - # 33
    frequency:    7.7199095583
  - # 34
    frequency:    7.7203589989
  - # 35
    frequency:   11.3909706114
  - # 36
    frequency:   11.5314167765
  - # 37
    frequency:   11.5314167765
  - # 38
    frequency:   11.5324979330
  - # 39
    frequency:   11.5396643738
  - # 40
    frequency:   11.5411910279
  - # 41
    frequency:   11.5411910279
  - # 42
    frequency:   11.8818017895

- q-position: [    0.0200000,    0.0000000,    0.0200000 ]
  distance:    0.0037584
  band:
  - # 1
    frequency:   -3.0598288437
  - # 2
    frequency:   -2.3148662534
  - # 3
    frequency:   -2.3148662534
  - # 4
    frequency:   -2.3115150283
  - # 5
    frequency:   -1.8851782395
  - # 6
    frequency:   -1.8831949435
  - # 7
    frequency:   -1.7357656644
  - # 8
    frequency:   -1.7357656644
  - # 9
    frequency:   -1.7352527097
  - # 10
    frequency:    0.0628708814
  - # 11
    frequency:    0.0628708814
  - # 12
    frequency:    0.1998061029
  - # 13
    frequency:    3.3551412898
  - # 14
    frequency:    3.3553095261
  - # 15
    frequency:    3.3553095261
  - # 16
    frequency:    4.5395588886
  - # 17
    frequency:    4.5408316931
  - # 18
    frequency:    4.5408316931
  - # 19
    frequency:    6.2883990529
  - # 20
    frequency:    6.2883990529
  - # 21
    frequency:    6.2887371953
  - # 22
    frequency:    6.9646672625
  - # 23
    frequency:    6.9670988137
  - # 24
    frequency:    6.9670988137
  - # 25
    frequency:    7.0147646428
  - # 26
    frequency:    7.0167407504
  - # 27
    frequency:    7.2639827600
  - # 28
    frequency:    7.2674423236
  - # 29
    frequency:    7.2733999738
  - # 30
    frequency:    7.2733999738
  - # 31
    frequency:    7.2783840717
  - # 32
    frequency:    7.7185141518
  - # 33
    frequency:    7.7185141518
  - # 34
    frequency:    7.7203068263
  - # 35
    frequency:   11.3900966289
  - # 36
    frequency:   11.5296324690
  - # 37
    frequency:   11.5296324690
  - # 38
    frequency:   11.5332690845
  - # 39
    frequency:   11.5380496579
  - # 40
    frequency:   11.5434652702
  - # 41
    frequency:   11.5434652702
  - # 42
    frequency:   11.8823472937

- q-position: [    0.0300000,    0.0000000,    0.0300000 ]
  distance:    0.0056376
  band:
  - # 1
    frequency:   -3.0603380808
  - # 2
    frequency:   -2.3165475652
  - # 3
    frequency:   -2.3165475652
  - # 4
    frequency:   -2.3090062416
  - # 5
    frequency:   -1.8856722555
  - # 6
    frequency:   -1.8811858393
  - # 7
    frequency:   -1.7345158372
  - # 8
    frequency:   -1.7345158372
  - # 9
    frequency:   -1.7334513358
  - # 10
    frequency:    0.0942677062
  - # 11
    frequency:    0.0942677062
  - # 12
    frequency:    0.2994983139
  - # 13
    frequency:    3.3572395306
  - # 14
    frequency:    3.3575942785
  - # 15
    frequency:    3.3575942785
  - # 16
    frequency:    4.5368258448
  - # 17
    frequency:    4.5396825032
  - # 18
    frequency:    4.5396825032
  - # 19
    frequency:    6.2892483203
  - # 20
    frequency:    6.2892483203
  - # 21
    frequency:    6.2900122041
  - # 22
    frequency:    6.9630681133
  - # 23
    frequency:    6.9684163298
  - # 24
    frequency:    6.9684163298
  - # 25
    frequency:    7.0144060556
  - # 26
    frequency:    7.0187337018
  - # 27
    frequency:    7.2612904648
  - # 28
    frequency:    7.2674116662
  - # 29
    frequency:    7.2718093680
  - # 30
    frequency:    7.2718093680
  - # 31
    frequency:    7.2813485509
  - # 32
    frequency:    7.7161999498
  - # 33
    frequency:    7.7161999498
  - # 34
    frequency:    7.7202144284
  - # 35
    frequency:   11.3886559879
  - # 36
    frequency:   11.5276056952
  - # 37
    frequency:   11.5276056952
  - # 38
    frequency:   11.5345366030
  - # 39
    frequency:   11.5353807624
  - # 40
    frequency:   11.5463030479
  - # 41
    frequency:   11.5463030479
  - # 42
    frequency:   11.8832356934

- q-position: [    0.0400000,    0.0000000,    0.0400000 ]
  distance:    0.0075168
  band:
  - # 1
    frequency:   -3.0610159891
  - # 2
    frequency:   -2.3189391502
  - # 3
    frequency:   -2.3189391502
  - # 4
    frequency:   -2.3055326632
  - # 5
    frequency:   -1.8863628796
  - # 6
    frequency:   -1.8783274621
  - # 7
    frequency:   -1.7326344520
  - # 8
    frequency:   -1.7326344520
  - # 9
    frequency:   -1.7309606913
  - # 10
    frequency:    0.1256117761
  - # 11
    frequency:    0.1256117761
  - # 12
    frequency:    0.3989361731
  - # 13
    frequency:    3.3601909733
  - # 14
    frequency:    3.3607630225
  - # 15
    frequency:    3.3607630225
  - # 16
    frequency:    4.5330083801
  - # 17
    frequency:    4.5380691000
  - # 18
    frequency:    4.5380691000
  - # 19
    frequency:    6.2904282637
  - # 20
    frequency:    6.2904282637
  - # 21
    frequency:    6.2917939551
  - # 22
    frequency:    6.9609951057
  - # 23
    frequency:    6.9702368768
  - # 24
    frequency:    6.9702368768
  - # 25
    frequency:    7.0139119532
  - # 26
    frequency:    7.0213497355
  - # 27
    frequency:    7.2584994314
  - # 28
    frequency:    7.2673657208
  - # 29
    frequency:    7.2695972589
  - # 30
    frequency:    7.2695972589
  - # 31
    frequency:    7.2845096737
  - # 32
    frequency:    7.7129841188
  - # 33
    frequency:    7.7129841188
  - # 34
    frequency:    7.7200737339
  - # 35
    frequency:   11.3866708575
  - # 36
    frequency:   11.5255984693
  - # 37
    frequency:   11.5255984693
  - # 38
    frequency:   11.5316897502
  - # 39
    frequency:   11.5362757663
  - # 40
    frequency:   11.5494341042
  - # 41
    frequency:   11.5494341042
  - # 42
    frequency:   11.8844372392

- q-position: [    0.0500000,    0.0000000,    0.0500000 ]
  distance:    0.0093959
  band:
  - # 1
    frequency:   -3.0618284230
  - # 2
    frequency:   -2.3220721443
  - # 3
    frequency:   -2.3220721443
  - # 4
    frequency:   -2.3011328679
  - # 5
    frequency:   -1.8872489666
  - # 6
    frequency:   -1.8745743999
  - # 7
    frequency:   -1.7299993508
  - # 8
    frequency:   -1.7299993508
  - # 9
    frequency:   -1.7278118017
  - # 10
    frequency:    0.1568754538
  - # 11
    frequency:    0.1568754538
  - # 12
    frequency:    0.4980326427
  - # 13
    frequency:    3.3640092094
  - # 14
    frequency:    3.3647868166
  - # 15
    frequency:    3.3647868166
  - # 16
    frequency:    4.5281154773
  - # 17
    frequency:    4.5359871641
  - # 18
    frequency:    4.5359871641
  - # 19
    frequency:    6.2919297390
  - # 20
    frequency:    6.2919297390
  - # 21
    frequency:    6.2940791841
  - # 22
    frequency:    6.9585530323
  - # 23
    frequency:    6.9725368660
  - # 24
    frequency:    6.9725368660
  - # 25
    frequency:    7.0132900766
  - # 26
    frequency:    7.0244758819
  - # 27
    frequency:    7.2556767704
  - # 28
    frequency:    7.2667782468
  - # 29
    frequency:    7.2667782468
  - # 30
    frequency:    7.2673015259
  - # 31
    frequency:    7.2877895781
  - # 32
    frequency:    7.7088905995
  - # 33
    frequency:    7.7088905995
  - # 34
    frequency:    7.7198736282
  - # 35
    frequency:   11.3841690645
  - # 36
    frequency:   11.5237026348
  - # 37
    frequency:   11.5237026348
  - # 38
    frequency:   11.5270189537
  - # 39
    frequency:   11.5384552791
  - # 40
    frequency:   11.5527552311
  - # 41
    frequency:   11.5527552311
  - # 42
    frequency:   11.8859128937

- q-position: [    0.0600000,    0.0000000,    0.0600000 ]
  distance:    0.0112751
  band:
  - # 1
    frequency:   -3.0627327082
  - # 2
    frequency:   -2.3259776794
  - # 3
    frequency:   -2.3259776794
  - # 4
    frequency:   -2.2958562302
  - # 5
    frequency:   -1.8883288396
  - # 6
    frequency:   -1.8698685579
  - # 7
    frequency:   -1.7264663308
  - # 8
    frequency:   -1.7264663308
  - # 9
    frequency:   -1.7240441901
  - # 10
    frequency:    0.1880236713
  - # 11
    frequency:    0.1880236713
  - # 12
    frequency:    0.5966987208
  - # 13
    frequency:    3.3687112625
  - # 14
    frequency:    3.3696297702
  - # 15
    frequency:    3.3696297702
  - # 16
    frequency:    4.5221589551
  - # 17
    frequency:    4.5334314453
  - # 18
    frequency:    4.5334314453
  - # 19
    frequency:    6.2937408432
  - # 20
    frequency:    6.2937408432
  - # 21
    frequency:    6.2968636903
  - # 22
    frequency:    6.9558294765
  - # 23
    frequency:    6.9752865109
  - # 24
    frequency:    6.9752865109
  - # 25
    frequency:    7.0125501302
  - # 26
    frequency:    7.0280142131
  - # 27
    frequency:    7.2528422212
  - # 28
    frequency:    7.2633709000
  - # 29
    frequency:    7.2633709000
  - # 30
    frequency:    7.2672153631
  - # 31
    frequency:    7.2911550079
  - # 32
    frequency:    7.7039500171
  - # 33
    frequency:    7.7039500171
  - # 34
    frequency:    7.7196001340
  - # 35
    frequency:   11.3811817392
  - # 36
    frequency:   11.5214188567
  - # 37
    frequency:   11.5219558139
  - # 38
    frequency:   11.5219558139
  - # 39
    frequency:   11.5410397310
  - # 40
    frequency:   11.5562144896
  - # 41
    frequency:   11.5562144896
  - # 42
    frequency:   11.8876165037

- q-position: [    0.0700000,    0.0000000,    0.0700000 ]
  distance:    0.0131543
  band:
  - # 1
    frequency:   -3.0636785165
  - # 2
    frequency:   -2.3306812102
  - # 3
    frequency:   -2.3306812102
  - # 4
    frequency:   -2.2897627430
  - # 5
    frequency:   -1.8896001448
  - # 6
    frequency:   -1.8641393423
  - # 7
    frequency:   -1.7218775723
  - # 8
    frequency:   -1.7218775723
  - # 9
    frequency:   -1.7197055940
  - # 10
    frequency:    0.2190133613
  - # 11
    frequency:    0.2190133613
  - # 12
    frequency:    0.6948429101
  - # 13
    frequency:    3.3743172491
  - # 14
    frequency:    3.3752499317
  - # 15
    frequency:    3.3752499317
  - # 16
    frequency:    4.5151536731
  - # 17
    frequency:    4.5303959760
  - # 18
    frequency:    4.5303959760
  - # 19
    frequency:    6.2958468305
  - # 20
    frequency:    6.2958468305
  - # 21
    frequency:    6.3001423337
  - # 22
    frequency:    6.9528914583
  - # 23
    frequency:    6.9784502161
  - # 24
    frequency:    6.9784502161
  - # 25
    frequency:    7.0117036062
  - # 26
    frequency:    7.0318853204
  - # 27
    frequency:    7.2499991646
  - # 28
    frequency:    7.2593975916
  - # 29
    frequency:    7.2593975916
  - # 30
    frequency:    7.2671028223
  - # 31
    frequency:    7.2945865223
  - # 32
    frequency:    7.6981995674
  - # 33
    frequency:    7.6981995674
  - # 34
    frequency:    7.7192366347
  - # 35
    frequency:   11.3777411624
  - # 36
    frequency:   11.5149458766
  - # 37
    frequency:   11.5203750185
  - # 38
    frequency:   11.5203750185
  - # 39
    frequency:   11.5439918797
  - # 40
    frequency:   11.5597778135
  - # 41
    frequency:   11.5597778135
  - # 42
    frequency:   11.8894970865

- q-position: [    0.0800000,    0.0000000,    0.0800000 ]
  distance:    0.0150335
  band:
  - # 1
    frequency:   -3.0646088844
  - # 2
    frequency:   -2.3361967289
  - # 3
    frequency:   -2.3361967289
  - # 4
    frequency:   -2.2829227781
  - # 5
    frequency:   -1.8910596834
  - # 6
    frequency:   -1.8573038447
  - # 7
    frequency:   -1.7160705611
  - # 8
    frequency:   -1.7160705611
  - # 9
    frequency:   -1.7148516110
  - # 10
    frequency:    0.2497934916
  - # 11
    frequency:    0.2497934916
  - # 12
    frequency:    0.7923706575
  - # 13
    frequency:    3.3808499598
  - # 14
    frequency:    3.3816002706
  - # 15
    frequency:    3.3816002706
  - # 16
    frequency:    4.5071177895
  - # 17
    frequency:    4.5268743168
  - # 18
    frequency:    4.5268743168
  - # 19
    frequency:    6.2982300361
  - # 20
    frequency:    6.2982300361
  - # 21
    frequency:    6.3039090337
  - # 22
    frequency:    6.9497875048
  - # 23
    frequency:    6.9819870351
  - # 24
    frequency:    6.9819870351
  - # 25
    frequency:    7.0107635834
  - # 26
    frequency:    7.0360263896
  - # 27
    frequency:    7.2471441591
  - # 28
    frequency:    7.2548842904
  - # 29
    frequency:    7.2548842904
  - # 30
    frequency:    7.2669588788
  - # 31
    frequency:    7.2980692238
  - # 32
    frequency:    7.6916828821
  - # 33
    frequency:    7.6916828821
  - # 34
    frequency:    7.7187641368
  - # 35
    frequency:   11.3738790580
  - # 36
    frequency:   11.5076602615
  - # 37
    frequency:   11.5189677251
  - # 38
    frequency:   11.5189677251
  - # 39
    frequency:   11.5472745134
  - # 40
    frequency:   11.5634181847
  - # 41
    frequency:   11.5634181847
  - # 42
    frequency:   11.8915010142

- q-position: [    0.0900000,    0.0000000,    0.0900000 ]
  distance:    0.0169127
  band:
  - # 1
    frequency:   -3.0654613504
  - # 2
    frequency:   -2.3425215213
  - # 3
    frequency:   -2.3425215213
  - # 4
    frequency:   -2.2754167791
  - # 5
    frequency:   -1.8927032259
  - # 6
    frequency:   -1.8492670054
  - # 7
    frequency:   -1.7095452685
  - # 8
    frequency:   -1.7088867295
  - # 9
    frequency:   -1.7088867295
  - # 10
    frequency:    0.2803056320
  - # 11
    frequency:    0.2803056320
  - # 12
    frequency:    0.8891837583
  - # 13
    frequency:    3.3883343639
  - # 14
    frequency:    3.3886297104
  - # 15
    frequency:    3.3886297104
  - # 16
    frequency:    4.4980730721
  - # 17
    frequency:    4.5228598291
  - # 18
    frequency:    4.5228598291
  - # 19
    frequency:    6.3008698213
  - # 20
    frequency:    6.3008698213
  - # 21
    frequency:    6.3081567672
  - # 22
    frequency:    6.9465514123
  - # 23
    frequency:    6.9858511906
  - # 24
    frequency:    6.9858511906
  - # 25
    frequency:    7.0097445031
  - # 26
    frequency:    7.0403876061
  - # 27
    frequency:    7.2442705440
  - # 28
    frequency:    7.2498602983
  - # 29
    frequency:    7.2498602983
  - # 30
    frequency:    7.2667779813
  - # 31
    frequency:    7.3015894575
  - # 32
    frequency:    7.6844498714
  - # 33
    frequency:    7.6844498714
  - # 34
    frequency:    7.7181615662
  - # 35
    frequency:   11.3696254215
  - # 36
    frequency:   11.4996242531
  - # 37
    frequency:   11.5177361671
  - # 38
    frequency:   11.5177361671
  - # 39
    frequency:   11.5508517992
  - # 40
    frequency:   11.5671116265
  - # 41
    frequency:   11.5671116265
  - # 42
    frequency:   11.8935739429

- q-position: [    0.1000000,    0.0000000,    0.1000000 ]
  distance:    0.0187919
  band:
  - # 1
    frequency:   -3.0661691815
  - # 2
    frequency:   -2.3496320927
  - # 3
    frequency:   -2.3496320927
  - # 4
    frequency:   -2.2673348752
  - # 5
    frequency:   -1.8945253142
  - # 6
    frequency:   -1.8399217279
  - # 7
    frequency:   -1.7038565126
  - # 8
    frequency:   -1.7001790552
  - # 9
    frequency:   -1.7001790552
  - # 10
    frequency:    0.3104849430
  - # 11
    frequency:    0.3104849430
  - # 12
    frequency:    0.9851797171
  - # 13
    frequency:    3.3962841663
  - # 14
    frequency:    3.3962841663
  - # 15
    frequency:    3.3967970340
  - # 16
    frequency:    4.4880452684
  - # 17
    frequency:    4.5183459642
  - # 18
    frequency:    4.5183459642
  - # 19
    frequency:    6.3037425539
  - # 20
    frequency:    6.3037425539
  - # 21
    frequency:    6.3128775680
  - # 22
    frequency:    6.9432059163
  - # 23
    frequency:    6.9899926490
  - # 24
    frequency:    6.9899926490
  - # 25
    frequency:    7.0086619318
  - # 26
    frequency:    7.0449286698
  - # 27
    frequency:    7.2413700514
  - # 28
    frequency:    7.2443579296
  - # 29
    frequency:    7.2443579296
  - # 30
    frequency:    7.2665541496
  - # 31
    frequency:    7.3051335347
  - # 32
    frequency:    7.6765565435
  - # 33
    frequency:    7.6765565435
  - # 34
    frequency:    7.7174060909
  - # 35
    frequency:   11.3650078596
  - # 36
    frequency:   11.4909005987
  - # 37
    frequency:   11.5166792665
  - # 38
    frequency:   11.5166792665
  - # 39
    frequency:   11.5546901400
  - # 40
    frequency:   11.5708355853
  - # 41
    frequency:   11.5708355853
  - # 42
    frequency:   11.8956624015

- q-position: [    0.1100000,    0.0000000,    0.1100000 ]
  distance:    0.0206711
  band:
  - # 1
    frequency:   -3.0666626568
  - # 2
    frequency:   -2.3574817626
  - # 3
    frequency:   -2.3574817626
  - # 4
    frequency:   -2.2587764027
  - # 5
    frequency:   -1.8965190574
  - # 6
    frequency:   -1.8291489144
  - # 7
    frequency:   -1.6978616113
  - # 8
    frequency:   -1.6898179938
  - # 9
    frequency:   -1.6898179938
  - # 10
    frequency:    0.3402614556
  - # 11
    frequency:    0.3402614556
  - # 12
    frequency:    1.0802510557
  - # 13
    frequency:    3.4045075508
  - # 14
    frequency:    3.4045075508
  - # 15
    frequency:    3.4062654941
  - # 16
    frequency:    4.4770645404
  - # 17
    frequency:    4.5133265645
  - # 18
    frequency:    4.5133265645
  - # 19
    frequency:    6.3068216366
  - # 20
    frequency:    6.3068216366
  - # 21
    frequency:    6.3180625280
  - # 22
    frequency:    6.9397656886
  - # 23
    frequency:    6.9943577465
  - # 24
    frequency:    6.9943577465
  - # 25
    frequency:    7.0075323148
  - # 26
    frequency:    7.0496159989
  - # 27
    frequency:    7.2384121271
  - # 28
    frequency:    7.2384121271
  - # 29
    frequency:    7.2384336358
  - # 30
    frequency:    7.2662810797
  - # 31
    frequency:    7.3086872662
  - # 32
    frequency:    7.6680647968
  - # 33
    frequency:    7.6680647968
  - # 34
    frequency:    7.7164734652
  - # 35
    frequency:   11.3600513475
  - # 36
    frequency:   11.4815514320
  - # 37
    frequency:   11.5157936334
  - # 38
    frequency:   11.5157936334
  - # 39
    frequency:   11.5587586286
  - # 40
    frequency:   11.5745682657
  - # 41
    frequency:   11.5745682657
  - # 42
    frequency:   11.8977150206

- q-position: [    0.1200000,    0.0000000,    0.1200000 ]
  distance:    0.0225503
  band:
  - # 1
    frequency:   -3.0668703775
  - # 2
    frequency:   -2.3660001899
  - # 3
    frequency:   -2.3660001899
  - # 4
    frequency:   -2.2498493225
  - # 5
    frequency:   -1.8986759290
  - # 6
    frequency:   -1.8168173845
  - # 7
    frequency:   -1.6916424682
  - # 8
    frequency:   -1.6776953641
  - # 9
    frequency:   -1.6776953641
  - # 10
    frequency:    0.3695615096
  - # 11
    frequency:    0.3695615096
  - # 12
    frequency:    1.1742845607
  - # 13
    frequency:    3.4132427152
  - # 14
    frequency:    3.4132427152
  - # 15
    frequency:    3.4167674898
  - # 16
    frequency:    4.4651659705
  - # 17
    frequency:    4.5077961670
  - # 18
    frequency:    4.5077961670
  - # 19
    frequency:    6.3100775974
  - # 20
    frequency:    6.3100775974
  - # 21
    frequency:    6.3237018003
  - # 22
    frequency:    6.9362396074
  - # 23
    frequency:    6.9988898604
  - # 24
    frequency:    6.9988898604
  - # 25
    frequency:    7.0063727275
  - # 26
    frequency:    7.0544206720
  - # 27
    frequency:    7.2320600112
  - # 28
    frequency:    7.2320600112
  - # 29
    frequency:    7.2354519534
  - # 30
    frequency:    7.2659522552
  - # 31
    frequency:    7.3122358702
  - # 32
    frequency:    7.6590421783
  - # 33
    frequency:    7.6590421783
  - # 34
    frequency:    7.7153383909
  - # 35
    frequency:   11.3547782937
  - # 36
    frequency:   11.4716374997
  - # 37
    frequency:   11.5150741619
  - # 38
    frequency:   11.5150741619
  - # 39
    frequency:   11.5630292076
  - # 40
    frequency:   11.5782883855
  - # 41
    frequency:   11.5782883855
  - # 42
    frequency:   11.8996834189

- q-position: [    0.1300000,    0.0000000,    0.1300000 ]
  distance:    0.0244295
  band:
  - # 1
    frequency:   -3.0667205708
  - # 2
    frequency:   -2.3750948130
  - # 3
    frequency:   -2.3750948130
  - # 4
    frequency:   -2.2406695183
  - # 5
    frequency:   -1.9009855705
  - # 6
    frequency:   -1.8027836357
  - # 7
    frequency:   -1.6852858430
  - # 8
    frequency:   -1.6637261050
  - # 9
    frequency:   -1.6637261050
  - # 10
    frequency:    0.3983092360
  - # 11
    frequency:    0.3983092360
  - # 12
    frequency:    1.2671604583
  - # 13
    frequency:    3.4224323037
  - # 14
    frequency:    3.4224323037
  - # 15
    frequency:    3.4283301854
  - # 16
    frequency:    4.4523901458
  - # 17
    frequency:    4.5017503069
  - # 18
    frequency:    4.5017503069
  - # 19
    frequency:    6.3134782521
  - # 20
    frequency:    6.3134782521
  - # 21
    frequency:    6.3297846041
  - # 22
    frequency:    6.9326324175
  - # 23
    frequency:    7.0035301245
  - # 24
    frequency:    7.0035301245
  - # 25
    frequency:    7.0052006305
  - # 26
    frequency:    7.0593169895
  - # 27
    frequency:    7.2253403639
  - # 28
    frequency:    7.2253403639
  - # 29
    frequency:    7.2324156643
  - # 30
    frequency:    7.2655610630
  - # 31
    frequency:    7.3157640745
  - # 32
    frequency:    7.6495615958
  - # 33
    frequency:    7.6495615958
  - # 34
    frequency:    7.7139748874
  - # 35
    frequency:   11.3492088069
  - # 36
    frequency:   11.4612176848
  - # 37
    frequency:   11.5145144353
  - # 38
    frequency:   11.5145144353
  - # 39
    frequency:   11.5674766364
  - # 40
    frequency:   11.5819751320
  - # 41
    frequency:   11.5819751320
  - # 42
    frequency:   11.9015227963

- q-position: [    0.1400000,    0.0000000,    0.1400000 ]
  distance:    0.0263086
  band:
  - # 1
    frequency:   -3.0661423577
  - # 2
    frequency:   -2.3846539277
  - # 3
    frequency:   -2.3846539277
  - # 4
    frequency:   -2.2313599641
  - # 5
    frequency:   -1.9034356096
  - # 6
    frequency:   -1.7868913937
  - # 7
    frequency:   -1.6788824759
  - # 8
    frequency:   -1.6478481036
  - # 9
    frequency:   -1.6478481036
  - # 10
    frequency:    0.4264279881
  - # 11
    frequency:    0.4264279881
  - # 12
    frequency:    1.3587515076
  - # 13
    frequency:    3.4320195044
  - # 14
    frequency:    3.4320195044
  - # 15
    frequency:    3.4409792913
  - # 16
    frequency:    4.4387838301
  - # 17
    frequency:    4.4951858123
  - # 18
    frequency:    4.4951858123
  - # 19
    frequency:    6.3169889490
  - # 20
    frequency:    6.3169889490
  - # 21
    frequency:    6.3362992334
  - # 22
    frequency:    6.9289459278
  - # 23
    frequency:    7.0040336321
  - # 24
    frequency:    7.0082181844
  - # 25
    frequency:    7.0082181844
  - # 26
    frequency:    7.0642815036
  - # 27
    frequency:    7.2182930554
  - # 28
    frequency:    7.2182930554
  - # 29
    frequency:    7.2293156343
  - # 30
    frequency:    7.2651009112
  - # 31
    frequency:    7.3192563315
  - # 32
    frequency:    7.6397009678
  - # 33
    frequency:    7.6397009678
  - # 34
    frequency:    7.7123566696
  - # 35
    frequency:   11.3433610782
  - # 36
    frequency:   11.4503487684
  - # 37
    frequency:   11.5141070333
  - # 38
    frequency:   11.5141070333
  - # 39
    frequency:   11.5720783464
  - # 40
    frequency:   11.5856082186
  - # 41
    frequency:   11.5856082186
  - # 42
    frequency:   11.9031922886

- q-position: [    0.1500000,    0.0000000,    0.1500000 ]
  distance:    0.0281878
  band:
  - # 1
    frequency:   -3.0650669544
  - # 2
    frequency:   -2.3945509461
  - # 3
    frequency:   -2.3945509461
  - # 4
    frequency:   -2.2220497485
  - # 5
    frequency:   -1.9060114975
  - # 6
    frequency:   -1.7689708883
  - # 7
    frequency:   -1.6725261169
  - # 8
    frequency:   -1.6300204994
  - # 9
    frequency:   -1.6300204994
  - # 10
    frequency:    0.4538416572
  - # 11
    frequency:    0.4538416572
  - # 12
    frequency:    1.4489220011
  - # 13
    frequency:    3.4419486909
  - # 14
    frequency:    3.4419486909
  - # 15
    frequency:    3.4547381270
  - # 16
    frequency:    4.4244007333
  - # 17
    frequency:    4.4881010891
  - # 18
    frequency:    4.4881010891
  - # 19
    frequency:    6.3205729031
  - # 20
    frequency:    6.3205729031
  - # 21
    frequency:    6.3432330681
  - # 22
    frequency:    6.9251798683
  - # 23
    frequency:    7.0028892651
  - # 24
    frequency:    7.0128929854
  - # 25
    frequency:    7.0128929854
  - # 26
    frequency:    7.0692923908
  - # 27
    frequency:    7.2109584341
  - # 28
    frequency:    7.2109584341