112  
4    

1    
  0.0000000000000000   0.0070710678118655   0.0070710678118655
  -0.0462685879   -0.0828926819   -0.0828926372
  -0.0001094789   -0.0000867780   -0.0000659974
  -0.0001233655   -0.0002025053   -0.0000507298
  -0.0001971199   -0.0002857423   -0.0001500600
  -0.0001054983   -0.0000503650   -0.0002212553
  -0.0003133454   -0.0001430521   -0.0003712478
  -0.0003972040   -0.0002638339   -0.0002636530
  -0.0000159243    0.0000185592    0.0000377167
   0.0021551977    0.0007215191    0.0003762727
   0.0003687903    0.0000533263   -0.0001435437
   0.0000901989    0.0002580274   -0.0002681120
   0.0004729539    0.0002245790    0.0001044077
   0.0020376891    0.0013711344   -0.0055277185
   0.0001684904    0.0002006626   -0.0003105751
   0.0003098755    0.0001296219   -0.0000603698
   0.0001712107    0.0001967924   -0.0000604367
   0.0021562149    0.0003776350    0.0007211680
   0.0003657689   -0.0001438495    0.0000556215
   0.0020426460   -0.0055275259    0.0013651137
   0.0001792240   -0.0003094989    0.0001949661
   0.0000923797   -0.0002672923    0.0002561361
   0.0004221142    0.0001230856    0.0001211149
   0.0003023089   -0.0000633777    0.0001327537
   0.0001866710   -0.0000623603    0.0002105240
   0.0007466865    0.0036073914    0.0036055223
  -0.0020845591    0.0014138568    0.0014142293
  -0.0002359788    0.0001509205    0.0001937678
  -0.0002163393    0.0002233565    0.0001464575
  -0.0002307623    0.0001958731    0.0001541427
  -0.0002202932    0.0001450845    0.0002166987
   0.0002582133    0.0005117280    0.0004864641
  -0.0000579755    0.0001973710    0.0002044381
   0.0000471853   -0.0000270296   -0.0000583198
  -0.0006622734   -0.0003989321    0.0008757400
  -0.0004453953   -0.0006121379    0.0006577886
   0.0000301039    0.0000001911    0.0000013203
  -0.0001262071   -0.0002510731   -0.0002776978
  -0.0001218555   -0.0000789051    0.0001150579
   0.0000598342   -0.0000374409    0.0000938437
   0.0000100003   -0.0000659245   -0.0000595574
   0.0005501664    0.0002437714    0.0002183596
  -0.0002313270   -0.0002664649   -0.0002654879
  -0.0002779188    0.0057641503   -0.0003353870
  -0.0000756292    0.0001401702    0.0000047970
  -0.0002487778   -0.0003566764    0.0057583864
  -0.0000768723    0.0000042556    0.0001414541
  -0.0001679977    0.0002343734    0.0002345779
  -0.0000588569   -0.0000188464   -0.0000286697
   0.0000592094   -0.0000597490   -0.0000395434
  -0.0006681464    0.0008680473   -0.0004015231
  -0.0001241108   -0.0002931095   -0.0002650595
  -0.0001391481    0.0001315730   -0.0000826679
  -0.0004439195    0.0006594518   -0.0006130813
   0.0000301253    0.0000033647    0.0000009391
   0.0000705163    0.0000867578   -0.0000553357
   0.0000235783   -0.0000750469   -0.0000681718
   0.0003819082    0.0000227306    0.0000213302
  -0.0000448235   -0.0000055889   -0.0000076588
   0.0003062226   -0.0007339488   -0.0007411302
   0.0001318354   -0.0001194347    0.0000851008
   0.0003081056   -0.0007420768   -0.0007314545
   0.0001770335    0.0001194019   -0.0001434187
   0.0001151194    0.0000899512    0.0000907548
   0.0000442484    0.0000471839    0.0000690988
  -0.0001630072   -0.0000093571    0.0000084929
   0.0000962610    0.0001819901    0.0001878586
  -0.0005386828    0.0000129486   -0.0005535227
  -0.0000407731   -0.0003521368    0.0008118384
  -0.0005810900   -0.0005662137    0.0000233086
  -0.0000444229    0.0008105516   -0.0003610308
  -0.0006447736    0.0002356387    0.0002350703
   0.0003929474    0.0004135955    0.0004138671
   0.0424614114    0.0436995334    0.0437053623
  -0.0003344884    0.0001609310    0.0001475251
  -0.0001609564   -0.0002316898    0.0001100121
   0.0000342832   -0.0001587841   -0.0000981706
  -0.0001761530    0.0001063045   -0.0001972971
   0.0000308230   -0.0001116729   -0.0001676802
  -0.0000468515   -0.0001052954   -0.0000982361
  -0.0001517395   -0.0001560531   -0.0001358171
  -0.0004658176   -0.0005438884   -0.0005452647
  -0.0022590524    0.0008604790    0.0008571840
   0.0006189819   -0.0008778844    0.0010222613
  -0.0000351659   -0.0000313769   -0.0005796303
   0.0006132835    0.0010231639   -0.0008753446
  -0.0000616010   -0.0005954765   -0.0000157913
  -0.0007972343   -0.0002266158   -0.0002224259
   0.0000598834   -0.0000569343   -0.0000743508
   0.0004397010    0.0009619461    0.0277000009
   0.0001100148    0.0009151956    0.0000305759
   0.0006815640    0.0003745542   -0.0002934130
   0.0000023470    0.0000660839    0.0001067706
  -0.0002597495   -0.0002300334    0.0006396491
   0.0001112510    0.0003625066    0.0003750700
   0.0000155694    0.0000343399    0.0004033972
   0.0000927675    0.0000973876   -0.0006741341
  -0.0002638124    0.0006373280   -0.0002277259
  -0.0000214433    0.0002331813    0.0003601615
   0.0004454018    0.0277097189    0.0009640104
   0.0001030522    0.0000354661    0.0009266804
   0.0000106445    0.0004057435    0.0000390678
   0.0001059882   -0.0006581357    0.0001028740
   0.0006910489   -0.0002968661    0.0003654433
   0.0000157244    0.0001242726    0.0000491491
   0.0005779310   -0.0000031890   -0.0000001753
   0.0001816397   -0.0009471211   -0.0009458923
  -0.0004351176    0.0010055741    0.0000177976
  -0.0001355793    0.0005499952    0.0005996599
  -0.0003396153    0.0000209421    0.0010977054
  -0.0001441844    0.0005976891    0.0005440881
  -0.0005381639    0.0002242686    0.0002153895
   0.0003648206    0.0002027440    0.0002000673

1    
  0.0000000000000000  -0.0070710678118655  -0.0070710678118655
   0.0440993152    0.0823932893    0.0823931620
  -0.0000909589   -0.0001152053   -0.0001362969
  -0.0000704778   -0.0000030587   -0.0001509583
  -0.0000020844    0.0000889007   -0.0000542319
  -0.0000880251   -0.0001512251    0.0000151843
   0.0001142121   -0.0000609791    0.0001737652
   0.0002036419    0.0000636267    0.0000632748
  -0.0001776990   -0.0002144182   -0.0002324835
  -0.0019741257   -0.0005132612   -0.0005841162
  -0.0001605302    0.0001548897   -0.0000650369
   0.0001090529   -0.0000497250    0.0000663959
  -0.0002725456   -0.0000173972   -0.0003167518
  -0.0017920427   -0.0011226325    0.0052092098
   0.0000328723    0.0000040972    0.0001095082
  -0.0001158761    0.0000803434   -0.0001433982
   0.0000278243    0.0000066648   -0.0001403355
  -0.0019751132   -0.0005855210   -0.0005130892
  -0.0001563953   -0.0000635538    0.0001524468
  -0.0017974107    0.0052090357   -0.0011161994
   0.0000213993    0.0001088336    0.0000096762
   0.0001068336    0.0000656874   -0.0000479052
  -0.0002228088   -0.0003324125    0.0000881515
  -0.0001083260   -0.0001403949    0.0000771005
   0.0000108692   -0.0001386599   -0.0000064865
  -0.0009563872   -0.0034958323   -0.0034939838
   0.0018376125   -0.0011823043   -0.0011815443
   0.0000408354    0.0000561559    0.0000142395
   0.0000179927   -0.0000159952    0.0000578323
   0.0000355429    0.0000122156    0.0000526148
   0.0000197185    0.0000584965   -0.0000104343
  -0.0004557971   -0.0003004235   -0.0002744252
  -0.0001408413    0.0000022723   -0.0000053300
  -0.0002503203   -0.0001834060    0.0002635866
   0.0004468217    0.0002101755   -0.0006534481
   0.0002638133    0.0004058612   -0.0004536788
  -0.0002276738   -0.0002022704    0.0002004371
  -0.0000728058    0.0000441917    0.0004811824
  -0.0000699697   -0.0001228204    0.0000934550
  -0.0002554861   -0.0001667526    0.0001153934
  -0.0002049768   -0.0001429320    0.0002697973
  -0.0003469029   -0.0000352476   -0.0000101496
   0.0005042520    0.0004859662    0.0004848545
   0.0004769572   -0.0055673538    0.0005135406
   0.0002753217    0.0000676874    0.0002020549
   0.0004483325    0.0005352289   -0.0055607113
   0.0002762147    0.0002029715    0.0000662892
   0.0003744270   -0.0000283712   -0.0000286852
   0.0002635891    0.0002261404    0.0002354718
  -0.0002621523    0.0002669155   -0.0001711412
   0.0004523453   -0.0006455212    0.0002131895
  -0.0000748377    0.0004966969    0.0000579849
  -0.0000540078    0.0000771189   -0.0001188529
   0.0002623321   -0.0004552699    0.0004067054
  -0.0002279608    0.0001947468   -0.0002020034
  -0.0002733773    0.0001154673   -0.0001488043
  -0.0002195771    0.0002851308   -0.0001393287
  -0.0001919222   -0.0002284929   -0.0002271247
   0.0002484883   -0.0002054579   -0.0002034650
  -0.0000936427    0.0005482946    0.0005435431
   0.0000667549   -0.0000858160   -0.0002876710
  -0.0000956755    0.0005445225    0.0005457047
   0.0000273330   -0.0003208689   -0.0000631680
   0.0000814214   -0.0002937755   -0.0002945365
   0.0001437784   -0.0002691611   -0.0002758589
   0.0001642647    0.0000114147   -0.0000047709
  -0.0000848452   -0.0001979506   -0.0002048139
   0.0005457264   -0.0000006159    0.0005572529
   0.0000453489    0.0003707311   -0.0008366610
   0.0005901747    0.0005761690   -0.0000132038
   0.0000538639   -0.0008323216    0.0003795199
   0.0006601059   -0.0002132277   -0.0002288332
  -0.0003919351   -0.0004114642   -0.0004126314
  -0.0408312114   -0.0424118905   -0.0424180175
   0.0003235164   -0.0001612724   -0.0001495656
   0.0001692337    0.0002203914   -0.0001039121
  -0.0000342980    0.0001526542    0.0000953432
   0.0001810364   -0.0001017219    0.0001855671
  -0.0000279889    0.0001089068    0.0001629699
   0.0000441445    0.0001046818    0.0000980395
   0.0001507228    0.0001593956    0.0001373531
   0.0004874353    0.0005409706    0.0005433599
   0.0022054615   -0.0008520087   -0.0008503059
  -0.0006126113    0.0008593936   -0.0010271455
   0.0000365575    0.0000371259    0.0005837362
  -0.0006089135   -0.0010271193    0.0008565634
   0.0000616280    0.0005995159    0.0000218371
   0.0008047949    0.0002284549    0.0002240799
  -0.0000557396    0.0000657622    0.0000838847
  -0.0004259187   -0.0007383958   -0.0287920693
  -0.0001133431   -0.0009050126   -0.0000296697
  -0.0006936798   -0.0003804589    0.0002921456
  -0.0000146811   -0.0000736493   -0.0001042787
   0.0002532882    0.0002272122   -0.0006456117
  -0.0000825992   -0.0003340294   -0.0004051898
   0.0000125109   -0.0000472519   -0.0004076398
  -0.0000912748   -0.0000940399    0.0006807689
   0.0002577979   -0.0006408415    0.0002251339
   0.0000507858   -0.0002613076   -0.0003315296
  -0.0004350602   -0.0288006049   -0.0007395219
  -0.0001051153   -0.0000374653   -0.0009135845
   0.0000177971   -0.0004100103   -0.0000515279
  -0.0001065612    0.0006661611   -0.0001005467
  -0.0007019522    0.0002933636   -0.0003679816
  -0.0000263109   -0.0001242238   -0.0000572264
  -0.0005836843   -0.0000046378   -0.0000060117
  -0.0001054742    0.0008726842    0.0008735778
   0.0004279112   -0.0010098140    0.0000085475
   0.0001245222   -0.0005437600   -0.0006117475
   0.0003314973    0.0000053597   -0.0011005200
   0.0001304099   -0.0006080673   -0.0005363486
   0.0005440728   -0.0002313644   -0.0002230031
  -0.0003525822   -0.0002009289   -0.0001999286

65   
  0.0000000000000000   0.0070710678118655   0.0070710678118655
  -0.0003403070   -0.0001396433   -0.0001766847
  -0.0015297199    0.0002136870    0.0001990522
   0.0002105376   -0.0008983198    0.0001999721
  -0.0001680128   -0.0005017125    0.0006881557
   0.0001845593    0.0001904144   -0.0008777362
  -0.0001664467    0.0006864358   -0.0005022784
  -0.0007121618    0.0000844293    0.0000860791
   0.0003751293    0.0002771011    0.0002727329
   0.0001576665    0.0003602689    0.0001362024
   0.0001066850   -0.0002382206   -0.0004372974
  -0.0005121079    0.0015233177    0.0001595831
   0.0006711752    0.0003512173    0.0012860824
   0.0000695885    0.0000824829    0.0004709871
   0.0001056634    0.0007037086   -0.0001131900
   0.0000982378    0.0000990935   -0.0001009451
   0.0001215286    0.0000349241   -0.0001754338
   0.0000456204    0.0001564092    0.0003396057
   0.0001039947   -0.0004382434   -0.0002372144
   0.0001070919    0.0005134616    0.0001000736
   0.0001341771   -0.0001315554    0.0006719933
  -0.0005128847    0.0001595450    0.0015242951
   0.0006704065    0.0012851060    0.0003511331
   0.0000837228   -0.0001103095    0.0001077071
   0.0000868376   -0.0001757161    0.0000378958
   0.0001299436    0.0000712325    0.0000344182
   0.0012883159    0.0004053495    0.0003956401
  -0.0000364763    0.0008962650   -0.0003052447
  -0.0003860726    0.0003909316   -0.0006785137
  -0.0000351725   -0.0003048153    0.0008978501
  -0.0004103648   -0.0007054443    0.0004090678
   0.0005088760    0.0002895538    0.0002914811
  -0.0005895185    0.0005097854    0.0005011977
  -0.0000013392    0.0003047927    0.0001658461
  -0.0002040843   -0.0000383338    0.0005034575
  -0.0000999501    0.0002056679    0.0004191652
  -0.0000798519   -0.0000600792    0.0001206311
  -0.0000366601    0.0014640279    0.0016368880
  -0.0000908134   -0.0003320384   -0.0001642129
  -0.0001885122   -0.0000948820   -0.0000499651
  -0.0000275713   -0.0002762181    0.0000738508
   0.0426295260    0.0439611296    0.0439594352
  -0.0001278017    0.0002695280    0.0002622936
  -0.0001412425   -0.0000602578    0.0001705333
   0.0001837900   -0.0000642434    0.0000277683
  -0.0001387763    0.0001663440   -0.0000595980
   0.0001983238    0.0000313788   -0.0000847839
   0.0000296781    0.0000615044    0.0000337810
   0.0002547460    0.0002800628    0.0003070503
   0.0000041907    0.0001736318    0.0003074348
  -0.0001989230    0.0005005119   -0.0000459290
  -0.0000336094    0.0016380704    0.0014628451
  -0.0001142091   -0.0001263620   -0.0003657183
  -0.0001043720    0.0004170411    0.0002074816
  -0.0001160519    0.0001422308   -0.0000837075
  -0.0001826904   -0.0000662631   -0.0001066454
  -0.0000106660    0.0001095203   -0.0002499673
   0.0003297264    0.0000777159    0.0000701644
  -0.0404692994    0.0422292648    0.0422275568
   0.0003346207   -0.0000327713   -0.0002656539
  -0.0000064252   -0.0001681387   -0.0002851300
   0.0003371647   -0.0002665709   -0.0000280738
   0.0000136297   -0.0002639997   -0.0001757476
  -0.0000535717    0.0000726621    0.0001019040
   0.0001668102   -0.0001444035   -0.0001721613
  -0.0018694114   -0.0890840164   -0.0890838739
   0.0000049662    0.0002688031    0.0002652732
   0.0001055761    0.0001766482    0.0001703150
  -0.0000688782    0.0001659681    0.0001984949
   0.0000835253    0.0001561026    0.0001740411
  -0.0000994758    0.0001801869    0.0001697539
   0.0000062091    0.0000541250    0.0000674651
  -0.0000062451   -0.0001983493   -0.0001119498
  -0.0002398268    0.0001135386    0.0001226591
   0.0002443616    0.0001181984    0.0001172879
   0.0000341408    0.0003165768    0.0003377712
  -0.0000085092   -0.0001854426   -0.0001728796
  -0.0000331885    0.0003337086    0.0003157821
  -0.0000080184   -0.0001709582   -0.0001898360
   0.0005487437   -0.0007332254   -0.0007337734
  -0.0005093735   -0.0006763310   -0.0006824772
   0.0005637401    0.0004630242    0.0005092284
  -0.0002872279   -0.0009634164   -0.0009687500
  -0.0002153902   -0.0010101271   -0.0000976597
   0.0007903214    0.0004350845    0.0002321565
  -0.0002166045   -0.0000986893   -0.0010067048
   0.0007954375    0.0002261485    0.0004487386
  -0.0003824657   -0.0000577479   -0.0000765648
   0.0004121295    0.0000862731    0.0000911350
   0.0000505256   -0.0000513762   -0.0000211232
   0.0000271297   -0.0003710729   -0.0003441153
   0.0004819894    0.0006527166   -0.0008752767
  -0.0005195696   -0.0008688497    0.0006011012
  -0.0008913623   -0.0007760034   -0.0008423602
   0.0008597400   -0.0006756883   -0.0007271746
   0.0000059342    0.0001233476    0.0001324218
   0.0000172375   -0.0003193391   -0.0003149195
  -0.0008920861   -0.0008380983   -0.0007739334
   0.0008581627   -0.0007282922   -0.0006781788
  -0.0000414665   -0.0000574008   -0.0000128925
  -0.0000467009   -0.0003656668   -0.0003535451
   0.0000089558    0.0001338012    0.0001219813
  -0.0000056708   -0.0003209277   -0.0003110092
   0.0005112028   -0.0008780818    0.0006109530
  -0.0004951475    0.0006410134   -0.0008642529
   0.0002329508   -0.0009719125   -0.0009756095
  -0.0005441979    0.0004444629    0.0004910743
   0.0002217151   -0.0000929987   -0.0010200550
  -0.0008004774    0.0002247616    0.0004345475
   0.0002204169   -0.0010235502   -0.0000920619
  -0.0007937190    0.0004255594    0.0002302698
  -0.0004148772    0.0000895555    0.0000937044
   0.0003884811   -0.0000633063   -0.0000826386

81   
  0.0000000000000000   0.0070710678118655   0.0070710678118655
  -0.0005477886   -0.0006563589   -0.0006559848
   0.0007337456    0.0006802213    0.0006810099
  -0.0009893643    0.0004932080   -0.0005989298
  -0.0006042001   -0.0007954141   -0.0001216986
  -0.0009886461   -0.0005992231    0.0004931330
  -0.0005625941   -0.0002015228   -0.0007409230
   0.0000505983   -0.0003522209   -0.0003887897
  -0.0001375485   -0.0002026228   -0.0001375637
  -0.0006507168   -0.0003012581    0.0280010055
   0.0008358304    0.0007709496    0.0009264894
   0.0001337215    0.0004123500    0.0003017012
  -0.0002586844    0.0000915619   -0.0002862724
  -0.0001909916   -0.0001332577    0.0005523627
   0.0001390427    0.0007395412   -0.0001329890
   0.0005446988    0.0004049219   -0.0006704021
   0.0003983746    0.0004550728   -0.0005323759
  -0.0006523784    0.0279962301   -0.0003042829
   0.0008998169    0.0009814128    0.0007528047
  -0.0001768261    0.0005616385   -0.0001395218
   0.0001548623   -0.0001392425    0.0007274160
   0.0001279933    0.0002978900    0.0004147641
  -0.0002136900   -0.0002446023    0.0001094922
   0.0005456366   -0.0006669960    0.0004056812
   0.0003706963   -0.0004748115    0.0004784205
  -0.0022700330   -0.0007632320   -0.0007612192
   0.0004748097    0.0001323756    0.0001145736
   0.0002424701    0.0008755938    0.0004612090
  -0.0005785624    0.0006033334    0.0007122723
   0.0002072360    0.0004590365    0.0008395684
  -0.0005629656    0.0007099980    0.0006239441
   0.0000254546    0.0002756310    0.0002787710
  -0.0001451912    0.0003829872    0.0003075696
  -0.0008340384   -0.0004230866    0.0272968533
   0.0006362544    0.0005894890    0.0011529773
  -0.0000750837    0.0001982756    0.0005152609
  -0.0004572972   -0.0001104293   -0.0000734705
  -0.0003871261   -0.0003314697    0.0007526038
  -0.0000430238    0.0005343357    0.0000805608
   0.0003315011    0.0001908393   -0.0004650847
   0.0002193201    0.0002442383   -0.0003331293
  -0.0003938207   -0.0004696204   -0.0004691951
   0.0008978573    0.0009472652    0.0009480696
  -0.0007649262    0.0006806086   -0.0003788541
  -0.0004220706   -0.0005649986    0.0000826783
  -0.0007639690   -0.0003793044    0.0006804797
  -0.0003651508    0.0000031310   -0.0005250842
   0.0002544487   -0.0001386708   -0.0001745102
   0.0000720633   -0.0000044525    0.0000527715
  -0.0008356736    0.0272919616   -0.0004262165
   0.0007006931    0.0012076335    0.0005708231
  -0.0003702986    0.0007624571   -0.0003396623
  -0.0000247960    0.0000688838    0.0005140996
  -0.0000808739    0.0005115660    0.0002007241
  -0.0004083544   -0.0000298468   -0.0000926538
   0.0003319360   -0.0004626987    0.0001904773
   0.0001709104   -0.0002759229    0.0002699181
  -0.0017400485   -0.0010313994   -0.0010293534
   0.0006513263   -0.0000666573   -0.0000853424
   0.0004397219    0.0006605921    0.0002501071
  -0.0003744814    0.0003921859    0.0004928187
   0.0004048846    0.0002480001    0.0006251765
  -0.0003627328    0.0004885994    0.0004105604
   0.0002330524    0.0000702337    0.0000743168
   0.0000623144    0.0001827988    0.0001061888
   0.0003911362    0.0003040247    0.0003503191
   0.0005013136   -0.0009543032   -0.0009522965
  -0.0007245027   -0.0005631020   -0.0005815406
  -0.0001236896   -0.0003413951    0.0009367068
  -0.0007320407   -0.0005854168   -0.0005517192
  -0.0000905123    0.0010099384   -0.0002816798
   0.0012068965   -0.0001019684   -0.0000609091
   0.0009803048    0.0001526706    0.0001392694
   0.0003984392    0.0003160686    0.0003606139
   0.0004688023   -0.0009358082   -0.0009367155
  -0.0007040703   -0.0005802353   -0.0005712081
  -0.0001290636   -0.0003358914    0.0009637633
  -0.0007171539   -0.0005793274   -0.0005712264
  -0.0000960828    0.0010357767   -0.0002749129
   0.0012248148   -0.0000909511   -0.0000493427
   0.0009811441    0.0001545716    0.0001379011
   0.0205081798   -0.0282988286   -0.0282987268
   0.0008757980   -0.0001274016   -0.0001163964
   0.0002645382    0.0011867227    0.0004621848
  -0.0000406207   -0.0000768660    0.0000470526
   0.0002869756    0.0004585795    0.0011706661
  -0.0000364521    0.0000395800   -0.0000797591
   0.0001484587   -0.0002761986   -0.0002616040
  -0.0016027737   -0.0008622562   -0.0007416452
  -0.0025570959   -0.0043549839   -0.0026984784
  -0.0011833284   -0.0007787232    0.0011001208
  -0.0007407563   -0.0009807327    0.0008468904
   0.0004317919    0.0007285971   -0.0008117961
  -0.0025853600   -0.0044351107   -0.0027032781
  -0.0011765724   -0.0007358016    0.0010904607
  -0.0007081966   -0.0009740969    0.0008607223
   0.0004319389    0.0007085092   -0.0007987271
  -0.0025799924   -0.0026977397   -0.0044394134
  -0.0011704578    0.0011177376   -0.0007203205
  -0.0025528489   -0.0026934874   -0.0043564206
  -0.0011774373    0.0011247847   -0.0007581516
  -0.0007041656    0.0008525676   -0.0009802765
   0.0003808379   -0.0007719592    0.0007558354
  -0.0007364085    0.0008371519   -0.0009853887
   0.0003696624   -0.0007953518    0.0007767069
  -0.0018506180   -0.0087490783   -0.0087425312
  -0.0018387392   -0.0088423479   -0.0088355476
   0.0012043557   -0.0007381164   -0.0005058370
   0.0011944603   -0.0007446896   -0.0005291654
   0.0011666366   -0.0005109639   -0.0007672324
   0.0011564640   -0.0005332266   -0.0007720733
  -0.0005284309    0.0006135600    0.0005637465
  -0.0005429040    0.0006277907    0.0005852157
