phonopy:
  version: 2.15.0
  calculator: aims
  frequency_unit_conversion_factor: 15.633302
  symmetry_tolerance: 1.00000e-05
  configuration:
    atom_name: "Ba Zr S"
    dim: "2 2 2"
    mp: "64 64 64"
    tmax: "2000"
    tprop: ".true."

physical_unit:
  atomic_mass: "AMU"
  length: "angstrom"
  force_constants: "eV/angstrom^2"

space_group:
  type: "Fd-3m"
  number: 227
  Hall_symbol: "F 4d 2 3 -1d"

supercell_matrix:
- [   2,   0,   0 ]
- [   0,   2,   0 ]
- [   0,   0,   2 ]

primitive_cell:
  lattice:
  - [     0.000000000000000,     5.321443800000000,     5.321443800000000 ] # a
  - [     5.321443800000000,     0.000000000000000,     5.321443800000000 ] # b
  - [     5.321443800000000,     5.321443800000000,     0.000000000000000 ] # c
  points:
  - symbol: S  # 1
    coordinates: [  0.743831960000000,  0.743831960000000,  0.743831960000000 ]
    mass: 32.065000
  - symbol: S  # 2
    coordinates: [  0.743831960000000,  0.743831960000000,  0.268504120000000 ]
    mass: 32.065000
  - symbol: S  # 3
    coordinates: [  0.743831960000000,  0.268504120000000,  0.743831960000000 ]
    mass: 32.065000
  - symbol: S  # 4
    coordinates: [  0.268504120000000,  0.743831960000000,  0.743831960000000 ]
    mass: 32.065000
  - symbol: S  # 5
    coordinates: [  0.256168040000000,  0.256168040000000,  0.731495880000000 ]
    mass: 32.065000
  - symbol: S  # 6
    coordinates: [  0.256168040000000,  0.256168040000000,  0.256168040000000 ]
    mass: 32.065000
  - symbol: S  # 7
    coordinates: [  0.256168040000000,  0.731495880000000,  0.256168040000000 ]
    mass: 32.065000
  - symbol: S  # 8
    coordinates: [  0.731495880000000,  0.256168040000000,  0.256168040000000 ]
    mass: 32.065000
  - symbol: Zr # 9
    coordinates: [  0.125000000000000,  0.125000000000000,  0.125000000000000 ]
    mass: 91.224000
  - symbol: Zr # 10
    coordinates: [  0.875000000000000,  0.875000000000000,  0.875000000000000 ]
    mass: 91.224000
  - symbol: Zr # 11
    coordinates: [  0.500000000000000,  0.500000000000000,  0.500000000000000 ]
    mass: 91.224000
  - symbol: Zr # 12
    coordinates: [  0.500000000000000,  0.500000000000000,  0.000000000000000 ]
    mass: 91.224000
  - symbol: Zr # 13
    coordinates: [  0.500000000000000,  0.000000000000000,  0.500000000000000 ]
    mass: 91.224000
  - symbol: Zr # 14
    coordinates: [  0.000000000000000,  0.500000000000000,  0.500000000000000 ]
    mass: 91.224000
  reciprocal_lattice: # without 2pi
  - [    -0.093959462655605,     0.093959462655605,     0.093959462655605 ] # a*
  - [     0.093959462655605,    -0.093959462655605,     0.093959462655605 ] # b*
  - [     0.093959462655605,     0.093959462655605,    -0.093959462655605 ] # c*

unit_cell:
  lattice:
  - [     0.000000000000000,     5.321443800000000,     5.321443800000000 ] # a
  - [     5.321443800000000,     0.000000000000000,     5.321443800000000 ] # b
  - [     5.321443800000000,     5.321443800000000,     0.000000000000000 ] # c
  points:
  - symbol: S  # 1
    coordinates: [  0.743831960000000,  0.743831960000000,  0.743831960000000 ]
    mass: 32.065000
    reduced_to: 1
  - symbol: S  # 2
    coordinates: [  0.743831960000000,  0.743831960000000,  0.268504120000000 ]
    mass: 32.065000
    reduced_to: 2
  - symbol: S  # 3
    coordinates: [  0.743831960000000,  0.268504120000000,  0.743831960000000 ]
    mass: 32.065000
    reduced_to: 3
  - symbol: S  # 4
    coordinates: [  0.268504120000000,  0.743831960000000,  0.743831960000000 ]
    mass: 32.065000
    reduced_to: 4
  - symbol: S  # 5
    coordinates: [  0.256168040000000,  0.256168040000000,  0.731495880000000 ]
    mass: 32.065000
    reduced_to: 5
  - symbol: S  # 6
    coordinates: [  0.256168040000000,  0.256168040000000,  0.256168040000000 ]
    mass: 32.065000
    reduced_to: 6
  - symbol: S  # 7
    coordinates: [  0.256168040000000,  0.731495880000000,  0.256168040000000 ]
    mass: 32.065000
    reduced_to: 7
  - symbol: S  # 8
    coordinates: [  0.731495880000000,  0.256168040000000,  0.256168040000000 ]
    mass: 32.065000
    reduced_to: 8
  - symbol: Zr # 9
    coordinates: [  0.125000000000000,  0.125000000000000,  0.125000000000000 ]
    mass: 91.224000
    reduced_to: 9
  - symbol: Zr # 10
    coordinates: [  0.875000000000000,  0.875000000000000,  0.875000000000000 ]
    mass: 91.224000
    reduced_to: 10
  - symbol: Zr # 11
    coordinates: [  0.500000000000000,  0.500000000000000,  0.500000000000000 ]
    mass: 91.224000
    reduced_to: 11
  - symbol: Zr # 12
    coordinates: [  0.500000000000000,  0.500000000000000,  1.000000000000000 ]
    mass: 91.224000
    reduced_to: 12
  - symbol: Zr # 13
    coordinates: [  0.500000000000000, -0.000000000000000,  0.500000000000000 ]
    mass: 91.224000
    reduced_to: 13
  - symbol: Zr # 14
    coordinates: [ -0.000000000000000,  0.500000000000000,  0.500000000000000 ]
    mass: 91.224000
    reduced_to: 14

supercell:
  lattice:
  - [     0.000000000000000,    10.642887600000000,    10.642887600000000 ] # a
  - [    10.642887600000000,     0.000000000000000,    10.642887600000000 ] # b
  - [    10.642887600000000,    10.642887600000000,     0.000000000000000 ] # c
  points:
  - symbol: S  # 1
    coordinates: [  0.371915980000000,  0.371915980000000,  0.371915980000000 ]
    mass: 32.065000
    reduced_to: 1
  - symbol: S  # 2
    coordinates: [  0.871915980000000,  0.371915980000000,  0.371915980000000 ]
    mass: 32.065000
    reduced_to: 1
  - symbol: S  # 3
    coordinates: [  0.371915980000000,  0.871915980000000,  0.371915980000000 ]
    mass: 32.065000
    reduced_to: 1
  - symbol: S  # 4
    coordinates: [  0.871915980000000,  0.871915980000000,  0.371915980000000 ]
    mass: 32.065000
    reduced_to: 1
  - symbol: S  # 5
    coordinates: [  0.371915980000000,  0.371915980000000,  0.871915980000000 ]
    mass: 32.065000
    reduced_to: 1
  - symbol: S  # 6
    coordinates: [  0.871915980000000,  0.371915980000000,  0.871915980000000 ]
    mass: 32.065000
    reduced_to: 1
  - symbol: S  # 7
    coordinates: [  0.371915980000000,  0.871915980000000,  0.871915980000000 ]
    mass: 32.065000
    reduced_to: 1
  - symbol: S  # 8
    coordinates: [  0.871915980000000,  0.871915980000000,  0.871915980000000 ]
    mass: 32.065000
    reduced_to: 1
  - symbol: S  # 9
    coordinates: [  0.371915980000000,  0.371915980000000,  0.134252060000000 ]
    mass: 32.065000
    reduced_to: 9
  - symbol: S  # 10
    coordinates: [  0.871915980000000,  0.371915980000000,  0.134252060000000 ]
    mass: 32.065000
    reduced_to: 9
  - symbol: S  # 11
    coordinates: [  0.371915980000000,  0.871915980000000,  0.134252060000000 ]
    mass: 32.065000
    reduced_to: 9
  - symbol: S  # 12
    coordinates: [  0.871915980000000,  0.871915980000000,  0.134252060000000 ]
    mass: 32.065000
    reduced_to: 9
  - symbol: S  # 13
    coordinates: [  0.371915980000000,  0.371915980000000,  0.634252060000000 ]
    mass: 32.065000
    reduced_to: 9
  - symbol: S  # 14
    coordinates: [  0.871915980000000,  0.371915980000000,  0.634252060000000 ]
    mass: 32.065000
    reduced_to: 9
  - symbol: S  # 15
    coordinates: [  0.371915980000000,  0.871915980000000,  0.634252060000000 ]
    mass: 32.065000
    reduced_to: 9
  - symbol: S  # 16
    coordinates: [  0.871915980000000,  0.871915980000000,  0.634252060000000 ]
    mass: 32.065000
    reduced_to: 9
  - symbol: S  # 17
    coordinates: [  0.371915980000000,  0.134252060000000,  0.371915980000000 ]
    mass: 32.065000
    reduced_to: 17
  - symbol: S  # 18
    coordinates: [  0.871915980000000,  0.134252060000000,  0.371915980000000 ]
    mass: 32.065000
    reduced_to: 17
  - symbol: S  # 19
    coordinates: [  0.371915980000000,  0.634252060000000,  0.371915980000000 ]
    mass: 32.065000
    reduced_to: 17
  - symbol: S  # 20
    coordinates: [  0.871915980000000,  0.634252060000000,  0.371915980000000 ]
    mass: 32.065000
    reduced_to: 17
  - symbol: S  # 21
    coordinates: [  0.371915980000000,  0.134252060000000,  0.871915980000000 ]
    mass: 32.065000
    reduced_to: 17
  - symbol: S  # 22
    coordinates: [  0.871915980000000,  0.134252060000000,  0.871915980000000 ]
    mass: 32.065000
    reduced_to: 17
  - symbol: S  # 23
    coordinates: [  0.371915980000000,  0.634252060000000,  0.871915980000000 ]
    mass: 32.065000
    reduced_to: 17
  - symbol: S  # 24
    coordinates: [  0.871915980000000,  0.634252060000000,  0.871915980000000 ]
    mass: 32.065000
    reduced_to: 17
  - symbol: S  # 25
    coordinates: [  0.134252060000000,  0.371915980000000,  0.371915980000000 ]
    mass: 32.065000
    reduced_to: 25
  - symbol: S  # 26
    coordinates: [  0.634252060000000,  0.371915980000000,  0.371915980000000 ]
    mass: 32.065000
    reduced_to: 25
  - symbol: S  # 27
    coordinates: [  0.134252060000000,  0.871915980000000,  0.371915980000000 ]
    mass: 32.065000
    reduced_to: 25
  - symbol: S  # 28
    coordinates: [  0.634252060000000,  0.871915980000000,  0.371915980000000 ]
    mass: 32.065000
    reduced_to: 25
  - symbol: S  # 29
    coordinates: [  0.134252060000000,  0.371915980000000,  0.871915980000000 ]
    mass: 32.065000
    reduced_to: 25
  - symbol: S  # 30
    coordinates: [  0.634252060000000,  0.371915980000000,  0.871915980000000 ]
    mass: 32.065000
    reduced_to: 25
  - symbol: S  # 31
    coordinates: [  0.134252060000000,  0.871915980000000,  0.871915980000000 ]
    mass: 32.065000
    reduced_to: 25
  - symbol: S  # 32
    coordinates: [  0.634252060000000,  0.871915980000000,  0.871915980000000 ]
    mass: 32.065000
    reduced_to: 25
  - symbol: S  # 33
    coordinates: [  0.128084020000000,  0.128084020000000,  0.365747940000000 ]
    mass: 32.065000
    reduced_to: 33
  - symbol: S  # 34
    coordinates: [  0.628084020000000,  0.128084020000000,  0.365747940000000 ]
    mass: 32.065000
    reduced_to: 33
  - symbol: S  # 35
    coordinates: [  0.128084020000000,  0.628084020000000,  0.365747940000000 ]
    mass: 32.065000
    reduced_to: 33
  - symbol: S  # 36
    coordinates: [  0.628084020000000,  0.628084020000000,  0.365747940000000 ]
    mass: 32.065000
    reduced_to: 33
  - symbol: S  # 37
    coordinates: [  0.128084020000000,  0.128084020000000,  0.865747940000000 ]
    mass: 32.065000
    reduced_to: 33
  - symbol: S  # 38
    coordinates: [  0.628084020000000,  0.128084020000000,  0.865747940000000 ]
    mass: 32.065000
    reduced_to: 33
  - symbol: S  # 39
    coordinates: [  0.128084020000000,  0.628084020000000,  0.865747940000000 ]
    mass: 32.065000
    reduced_to: 33
  - symbol: S  # 40
    coordinates: [  0.628084020000000,  0.628084020000000,  0.865747940000000 ]
    mass: 32.065000
    reduced_to: 33
  - symbol: S  # 41
    coordinates: [  0.128084020000000,  0.128084020000000,  0.128084020000000 ]
    mass: 32.065000
    reduced_to: 41
  - symbol: S  # 42
    coordinates: [  0.628084020000000,  0.128084020000000,  0.128084020000000 ]
    mass: 32.065000
    reduced_to: 41
  - symbol: S  # 43
    coordinates: [  0.128084020000000,  0.628084020000000,  0.128084020000000 ]
    mass: 32.065000
    reduced_to: 41
  - symbol: S  # 44
    coordinates: [  0.628084020000000,  0.628084020000000,  0.128084020000000 ]
    mass: 32.065000
    reduced_to: 41
  - symbol: S  # 45
    coordinates: [  0.128084020000000,  0.128084020000000,  0.628084020000000 ]
    mass: 32.065000
    reduced_to: 41
  - symbol: S  # 46
    coordinates: [  0.628084020000000,  0.128084020000000,  0.628084020000000 ]
    mass: 32.065000
    reduced_to: 41
  - symbol: S  # 47
    coordinates: [  0.128084020000000,  0.628084020000000,  0.628084020000000 ]
    mass: 32.065000
    reduced_to: 41
  - symbol: S  # 48
    coordinates: [  0.628084020000000,  0.628084020000000,  0.628084020000000 ]
    mass: 32.065000
    reduced_to: 41
  - symbol: S  # 49
    coordinates: [  0.128084020000000,  0.365747940000000,  0.128084020000000 ]
    mass: 32.065000
    reduced_to: 49
  - symbol: S  # 50
    coordinates: [  0.628084020000000,  0.365747940000000,  0.128084020000000 ]
    mass: 32.065000
    reduced_to: 49
  - symbol: S  # 51
    coordinates: [  0.128084020000000,  0.865747940000000,  0.128084020000000 ]
    mass: 32.065000
    reduced_to: 49
  - symbol: S  # 52
    coordinates: [  0.628084020000000,  0.865747940000000,  0.128084020000000 ]
    mass: 32.065000
    reduced_to: 49
  - symbol: S  # 53
    coordinates: [  0.128084020000000,  0.365747940000000,  0.628084020000000 ]
    mass: 32.065000
    reduced_to: 49
  - symbol: S  # 54
    coordinates: [  0.628084020000000,  0.365747940000000,  0.628084020000000 ]
    mass: 32.065000
    reduced_to: 49
  - symbol: S  # 55
    coordinates: [  0.128084020000000,  0.865747940000000,  0.628084020000000 ]
    mass: 32.065000
    reduced_to: 49
  - symbol: S  # 56
    coordinates: [  0.628084020000000,  0.865747940000000,  0.628084020000000 ]
    mass: 32.065000
    reduced_to: 49
  - symbol: S  # 57
    coordinates: [  0.365747940000000,  0.128084020000000,  0.128084020000000 ]
    mass: 32.065000
    reduced_to: 57
  - symbol: S  # 58
    coordinates: [  0.865747940000000,  0.128084020000000,  0.128084020000000 ]
    mass: 32.065000
    reduced_to: 57
  - symbol: S  # 59
    coordinates: [  0.365747940000000,  0.628084020000000,  0.128084020000000 ]
    mass: 32.065000
    reduced_to: 57
  - symbol: S  # 60
    coordinates: [  0.865747940000000,  0.628084020000000,  0.128084020000000 ]
    mass: 32.065000
    reduced_to: 57
  - symbol: S  # 61
    coordinates: [  0.365747940000000,  0.128084020000000,  0.628084020000000 ]
    mass: 32.065000
    reduced_to: 57
  - symbol: S  # 62
    coordinates: [  0.865747940000000,  0.128084020000000,  0.628084020000000 ]
    mass: 32.065000
    reduced_to: 57
  - symbol: S  # 63
    coordinates: [  0.365747940000000,  0.628084020000000,  0.628084020000000 ]
    mass: 32.065000
    reduced_to: 57
  - symbol: S  # 64
    coordinates: [  0.865747940000000,  0.628084020000000,  0.628084020000000 ]
    mass: 32.065000
    reduced_to: 57
  - symbol: Zr # 65
    coordinates: [  0.062500000000000,  0.062500000000000,  0.062500000000000 ]
    mass: 91.224000
    reduced_to: 65
  - symbol: Zr # 66
    coordinates: [  0.562500000000000,  0.062500000000000,  0.062500000000000 ]
    mass: 91.224000
    reduced_to: 65
  - symbol: Zr # 67
    coordinates: [  0.062500000000000,  0.562500000000000,  0.062500000000000 ]
    mass: 91.224000
    reduced_to: 65
  - symbol: Zr # 68
    coordinates: [  0.562500000000000,  0.562500000000000,  0.062500000000000 ]
    mass: 91.224000
    reduced_to: 65
  - symbol: Zr # 69
    coordinates: [  0.062500000000000,  0.062500000000000,  0.562500000000000 ]
    mass: 91.224000
    reduced_to: 65
  - symbol: Zr # 70
    coordinates: [  0.562500000000000,  0.062500000000000,  0.562500000000000 ]
    mass: 91.224000
    reduced_to: 65
  - symbol: Zr # 71
    coordinates: [  0.062500000000000,  0.562500000000000,  0.562500000000000 ]
    mass: 91.224000
    reduced_to: 65
  - symbol: Zr # 72
    coordinates: [  0.562500000000000,  0.562500000000000,  0.562500000000000 ]
    mass: 91.224000
    reduced_to: 65
  - symbol: Zr # 73
    coordinates: [  0.437500000000000,  0.437500000000000,  0.437500000000000 ]
    mass: 91.224000
    reduced_to: 73
  - symbol: Zr # 74
    coordinates: [  0.937500000000000,  0.437500000000000,  0.437500000000000 ]
    mass: 91.224000
    reduced_to: 73
  - symbol: Zr # 75
    coordinates: [  0.437500000000000,  0.937500000000000,  0.437500000000000 ]
    mass: 91.224000
    reduced_to: 73
  - symbol: Zr # 76
    coordinates: [  0.937500000000000,  0.937500000000000,  0.437500000000000 ]
    mass: 91.224000
    reduced_to: 73
  - symbol: Zr # 77
    coordinates: [  0.437500000000000,  0.437500000000000,  0.937500000000000 ]
    mass: 91.224000
    reduced_to: 73
  - symbol: Zr # 78
    coordinates: [  0.937500000000000,  0.437500000000000,  0.937500000000000 ]
    mass: 91.224000
    reduced_to: 73
  - symbol: Zr # 79
    coordinates: [  0.437500000000000,  0.937500000000000,  0.937500000000000 ]
    mass: 91.224000
    reduced_to: 73
  - symbol: Zr # 80
    coordinates: [  0.937500000000000,  0.937500000000000,  0.937500000000000 ]
    mass: 91.224000
    reduced_to: 73
  - symbol: Zr # 81
    coordinates: [  0.250000000000000,  0.250000000000000,  0.250000000000000 ]
    mass: 91.224000
    reduced_to: 81
  - symbol: Zr # 82
    coordinates: [  0.750000000000000,  0.250000000000000,  0.250000000000000 ]
    mass: 91.224000
    reduced_to: 81
  - symbol: Zr # 83
    coordinates: [  0.250000000000000,  0.750000000000000,  0.250000000000000 ]
    mass: 91.224000
    reduced_to: 81
  - symbol: Zr # 84
    coordinates: [  0.750000000000000,  0.750000000000000,  0.250000000000000 ]
    mass: 91.224000
    reduced_to: 81
  - symbol: Zr # 85
    coordinates: [  0.250000000000000,  0.250000000000000,  0.750000000000000 ]
    mass: 91.224000
    reduced_to: 81
  - symbol: Zr # 86
    coordinates: [  0.750000000000000,  0.250000000000000,  0.750000000000000 ]
    mass: 91.224000
    reduced_to: 81
  - symbol: Zr # 87
    coordinates: [  0.250000000000000,  0.750000000000000,  0.750000000000000 ]
    mass: 91.224000
    reduced_to: 81
  - symbol: Zr # 88
    coordinates: [  0.750000000000000,  0.750000000000000,  0.750000000000000 ]
    mass: 91.224000
    reduced_to: 81
  - symbol: Zr # 89
    coordinates: [  0.250000000000000,  0.250000000000000,  0.500000000000000 ]
    mass: 91.224000
    reduced_to: 89
  - symbol: Zr # 90
    coordinates: [  0.750000000000000,  0.250000000000000,  0.500000000000000 ]
    mass: 91.224000
    reduced_to: 89
  - symbol: Zr # 91
    coordinates: [  0.250000000000000,  0.750000000000000,  0.500000000000000 ]
    mass: 91.224000
    reduced_to: 89
  - symbol: Zr # 92
    coordinates: [  0.750000000000000,  0.750000000000000,  0.500000000000000 ]
    mass: 91.224000
    reduced_to: 89
  - symbol: Zr # 93
    coordinates: [  0.250000000000000,  0.250000000000000,  0.000000000000000 ]
    mass: 91.224000
    reduced_to: 89
  - symbol: Zr # 94
    coordinates: [  0.750000000000000,  0.250000000000000,  0.000000000000000 ]
    mass: 91.224000
    reduced_to: 89
  - symbol: Zr # 95
    coordinates: [  0.250000000000000,  0.750000000000000,  0.000000000000000 ]
    mass: 91.224000
    reduced_to: 89
  - symbol: Zr # 96
    coordinates: [  0.750000000000000,  0.750000000000000,  0.000000000000000 ]
    mass: 91.224000
    reduced_to: 89
  - symbol: Zr # 97
    coordinates: [  0.250000000000000,  0.000000000000000,  0.250000000000000 ]
    mass: 91.224000
    reduced_to: 97
  - symbol: Zr # 98
    coordinates: [  0.750000000000000,  0.000000000000000,  0.250000000000000 ]
    mass: 91.224000
    reduced_to: 97
  - symbol: Zr # 99
    coordinates: [  0.250000000000000,  0.500000000000000,  0.250000000000000 ]
    mass: 91.224000
    reduced_to: 97
  - symbol: Zr # 100
    coordinates: [  0.750000000000000,  0.500000000000000,  0.250000000000000 ]
    mass: 91.224000
    reduced_to: 97
  - symbol: Zr # 101
    coordinates: [  0.250000000000000,  0.000000000000000,  0.750000000000000 ]
    mass: 91.224000
    reduced_to: 97
  - symbol: Zr # 102
    coordinates: [  0.750000000000000,  0.000000000000000,  0.750000000000000 ]
    mass: 91.224000
    reduced_to: 97
  - symbol: Zr # 103
    coordinates: [  0.250000000000000,  0.500000000000000,  0.750000000000000 ]
    mass: 91.224000
    reduced_to: 97
  - symbol: Zr # 104
    coordinates: [  0.750000000000000,  0.500000000000000,  0.750000000000000 ]
    mass: 91.224000
    reduced_to: 97
  - symbol: Zr # 105
    coordinates: [  0.000000000000000,  0.250000000000000,  0.250000000000000 ]
    mass: 91.224000
    reduced_to: 105
  - symbol: Zr # 106
    coordinates: [  0.500000000000000,  0.250000000000000,  0.250000000000000 ]
    mass: 91.224000
    reduced_to: 105
  - symbol: Zr # 107
    coordinates: [  0.000000000000000,  0.750000000000000,  0.250000000000000 ]
    mass: 91.224000
    reduced_to: 105
  - symbol: Zr # 108
    coordinates: [  0.500000000000000,  0.750000000000000,  0.250000000000000 ]
    mass: 91.224000
    reduced_to: 105
  - symbol: Zr # 109
    coordinates: [  0.000000000000000,  0.250000000000000,  0.750000000000000 ]
    mass: 91.224000
    reduced_to: 105
  - symbol: Zr # 110
    coordinates: [  0.500000000000000,  0.250000000000000,  0.750000000000000 ]
    mass: 91.224000
    reduced_to: 105
  - symbol: Zr # 111
    coordinates: [  0.000000000000000,  0.750000000000000,  0.750000000000000 ]
    mass: 91.224000
    reduced_to: 105
  - symbol: Zr # 112
    coordinates: [  0.500000000000000,  0.750000000000000,  0.750000000000000 ]
    mass: 91.224000
    reduced_to: 105
