192  
23   

1    
  0.0049079275753433   0.0000000000000000   0.0087127634488252
  -0.0127736787   -0.0030549488   -0.0203393251
   0.0007179288   -0.0004391196   -0.0008603566
  -0.0006070953   -0.0004259548   -0.0008608375
  -0.0004157834   -0.0004944602   -0.0004967607
   0.0010310705    0.0012572325   -0.0016881374
   0.0008842240   -0.0004692324   -0.0014052141
   0.0009048759   -0.0004598624   -0.0014102045
   0.0008659066    0.0016848112   -0.0010005648
   0.0004880225   -0.0005049356    0.0001887502
   0.0005349845   -0.0005067148    0.0001586215
   0.0004880894   -0.0004949673    0.0001888462
   0.0005347077   -0.0004955871    0.0001587173
  -0.0005158395    0.0004949270    0.0001886433
  -0.0005053621    0.0004947791    0.0001885731
  -0.0005164221    0.0005068161    0.0001584655
  -0.0005057669    0.0005070390    0.0001584924
  -0.0014904892   -0.0006458020    0.0041706798
  -0.0000342324   -0.0004074226    0.0004412287
  -0.0004888671   -0.0003854542    0.0004402226
  -0.0003881274   -0.0004276713    0.0003574728
   0.0001724292    0.0002964024    0.0005378700
   0.0010858954   -0.0002856788    0.0010586170
   0.0000963924    0.0006214232    0.0006095748
   0.0010804450    0.0012390449    0.0008413451
   0.0003974507   -0.0003872254    0.0006755142
   0.0004840165   -0.0004122301    0.0004056935
   0.0004037395   -0.0004649581    0.0006345023
   0.0004915958   -0.0004632921    0.0003900043
  -0.0003733522    0.0004008473    0.0008483895
  -0.0005105601    0.0004374411    0.0004427629
  -0.0004150280    0.0004471733    0.0004337916
  -0.0004759385    0.0004438754    0.0003912064
   0.0004281397   -0.0004923777    0.0001258415
   0.0004690708   -0.0004720668   -0.0000739353
   0.0004105762   -0.0003825347    0.0001117474
   0.0004672495   -0.0004039306   -0.0000925511
  -0.0004785301    0.0004316602   -0.0000460056
  -0.0004282254    0.0004441823    0.0003022219
  -0.0004750739    0.0004325552   -0.0001019208
  -0.0004163895    0.0004198951   -0.0000938183
  -0.0011413693   -0.0002852055    0.0039571613
  -0.0000639972   -0.0004393529   -0.0000866253
  -0.0005219819   -0.0004163042   -0.0000854774
  -0.0003741462   -0.0004141253   -0.0001769330
   0.0010079180    0.0011318137    0.0005945962
   0.0000803595    0.0005956347    0.0000873495
   0.0009800473   -0.0003880241    0.0005405818
   0.0000637096    0.0002212585   -0.0000409925
   0.0000701749    0.0000460292   -0.0005099528
  -0.0000487911    0.0000003774   -0.0004901055
   0.0000286645   -0.0000054569   -0.0004730018
  -0.0000468569   -0.0000388583   -0.0004648797
   0.0004785958   -0.0012032135    0.0018167284
  -0.0013979484    0.0007707173   -0.0000646440
   0.0004962195   -0.0006111072    0.0000582780
  -0.0001879670   -0.0000951763   -0.0000877888
   0.0035776612    0.0018812165    0.0040012815
  -0.0001151282    0.0002675156    0.0009297438
  -0.0000055735    0.0006770120    0.0008070910
  -0.0000793335    0.0000108803    0.0006339779
  -0.0000079440   -0.0000320147    0.0001322337
  -0.0000102097   -0.0000125421    0.0001988931
   0.0000156470    0.0000329636    0.0001819230
   0.0000037630    0.0000117278    0.0002140879
  -0.0010664640   -0.0026274663   -0.0021401785
   0.0001925534    0.0000685585   -0.0003589997
  -0.0002336348    0.0009439262   -0.0005315959
  -0.0000408673    0.0001293882   -0.0006043822
  -0.0000118924   -0.0000331848   -0.0009841974
  -0.0000040094   -0.0000136507   -0.0009271728
   0.0000084713    0.0000334998   -0.0009459560
   0.0000107717    0.0000171579   -0.0009164288
   0.0000667476    0.0000455741    0.0006691508
  -0.0000476583    0.0000082544    0.0006730021
   0.0000302589   -0.0000103114    0.0006916787
  -0.0000510473   -0.0000447056    0.0007001187
   0.0020293708    0.0004518470    0.0010368164
  -0.0015343271    0.0009322831    0.0008772570
   0.0006299684   -0.0007779136    0.0010494291
  -0.0002937982   -0.0001230352    0.0010247023
   0.0000208546    0.0006189075    0.0030572856
  -0.0008448618    0.0005766196    0.0010840132
   0.0003799592    0.0010866645    0.0041043577
  -0.0009119465    0.0006271627    0.0010701511
  -0.0013262531   -0.0005747013    0.0030672946
   0.0053037720    0.0000345712    0.0040956486
   0.0005769564   -0.0006773973    0.0010845710
   0.0006124947   -0.0005370509    0.0010693315
  -0.0005915837   -0.0005897843   -0.0004468882
  -0.0005955065   -0.0005911918   -0.0004406498
  -0.0005918891   -0.0005879279   -0.0004408541
  -0.0005968524   -0.0005946778   -0.0004381785
   0.0006128501    0.0005909231   -0.0005786381
   0.0005763718    0.0005930709   -0.0004172308
   0.0006102824    0.0005894840   -0.0004172389
   0.0005786535    0.0005923580   -0.0003591578
  -0.0000052596    0.0000319470    0.0001160819
  -0.0000105854    0.0000150186    0.0001732550
   0.0000172047   -0.0000371880    0.0001525665
   0.0000058391   -0.0000132838    0.0001845246
   0.0020234846    0.0006757266    0.0011675171
  -0.0015070931   -0.0008643403    0.0004398287
   0.0004402586    0.0004733672    0.0007781450
  -0.0002858957    0.0000442264    0.0005449500
   0.0011872476   -0.0000615418    0.0005425589
  -0.0012675294   -0.0008320875   -0.0000822183
   0.0005387614    0.0006723173    0.0000057603
  -0.0001964323    0.0001310629   -0.0000252506
  -0.0000073409    0.0000299145   -0.0004757543
  -0.0000078962    0.0000142925   -0.0004206466
   0.0000048602   -0.0000324158   -0.0004357247
   0.0000145990   -0.0000172753   -0.0004070818
   0.0000654195   -0.0000397191   -0.0004571828
  -0.0000490125   -0.0000059179   -0.0004454940
   0.0000311527    0.0000029151   -0.0004309735
  -0.0000519001    0.0000470068   -0.0004255484
   0.0004386748    0.0013873443   -0.0000196944
   0.0002253848   -0.0000802367    0.0001670707
  -0.0000712953   -0.0004239017    0.0002262427
  -0.0000323265   -0.0000785181    0.0000003622
   0.0005305270    0.0014637436    0.0006840886
  -0.0003706380   -0.0003220253    0.0010840943
  -0.0002434192   -0.0010604232    0.0005996405
  -0.0000775280   -0.0001210033    0.0005703619
   0.0000641856   -0.0000406529    0.0001343341
  -0.0000479306    0.0000004032    0.0001420648
   0.0000257913    0.0000059864    0.0001634261
  -0.0000456222    0.0000403134    0.0001660680
   0.0000589219   -0.0000064988   -0.0005109164
  -0.0001402926   -0.0000328231    0.0000620067
  -0.0000244986   -0.0000651840    0.0000362672
  -0.0000737460   -0.0000546961    0.0002243006
  -0.0000054563   -0.0000266857   -0.0001602506
   0.0001014353    0.0000256402    0.0000507403
  -0.0000143518    0.0001040070   -0.0001718155
   0.0001054011    0.0000567892    0.0000796121
   0.0006236389    0.0004717345    0.0000023058
  -0.0003034526    0.0001092876    0.0004733759
   0.0004535502   -0.0004568260    0.0000637648
  -0.0002934407   -0.0001162308    0.0004910644
   0.0004022841    0.0000675149    0.0005616103
  -0.0007338593    0.0001011963   -0.0005903316
   0.0000913000   -0.0000452622    0.0004842682
  -0.0000630512   -0.0001161209    0.0005042765
   0.0004986496   -0.0006482491   -0.0010144243
  -0.0000713291   -0.0001277146   -0.0003606084
   0.0004928517    0.0004486404   -0.0008180663
  -0.0000677191   -0.0000640353   -0.0003415969
  -0.0007194342   -0.0000611505   -0.0015768779
   0.0001685361    0.0001370552   -0.0001619368
  -0.0001459026    0.0001877494   -0.0003719707
  -0.0000111780    0.0001099272   -0.0003543777
  -0.0000070529   -0.0000720639   -0.0013314382
  -0.0001007223   -0.0000508365   -0.0008128068
  -0.0000425959   -0.0000260039   -0.0007870871
  -0.0000506834   -0.0000317325   -0.0006553895
   0.0000775648    0.0000564270   -0.0007847052
   0.0000345944    0.0001193481   -0.0010132583
   0.0000792952    0.0000372359   -0.0007917704
   0.0000158187   -0.0000326440   -0.0010125270
   0.0001619003    0.0002266848    0.0011039943
   0.0002375783    0.0001889845    0.0007777109
   0.0001344806    0.0001930164    0.0007976302
   0.0002135765    0.0001717337    0.0006349769
  -0.0001374871   -0.0001469097    0.0008927382
  -0.0002382558   -0.0001422017    0.0007787988
  -0.0001414371   -0.0002618057    0.0009101366
  -0.0002341543   -0.0002350904    0.0007578073
  -0.0029226441   -0.0045485232   -0.0004887761
   0.0006506760   -0.0006520400   -0.0004501161
  -0.0018372685    0.0045663361   -0.0011891015
   0.0007024809    0.0007586515   -0.0005638844
  -0.0027261842    0.0000819222   -0.0025699486
   0.0068229991    0.0001975928    0.0019313351
  -0.0005046770   -0.0001296713   -0.0005004383
   0.0007238106   -0.0002690628   -0.0005128676
  -0.0033074861    0.0051337460   -0.0005827075
   0.0007725632    0.0009455499   -0.0009797576
  -0.0032869778   -0.0047022580   -0.0020739311
   0.0009501877   -0.0003002255   -0.0010758882
   0.0069956837   -0.0002730078    0.0015096106
  -0.0023907260   -0.0012251381   -0.0052124483
   0.0010963260   -0.0000091117   -0.0009296769
  -0.0003322255   -0.0000224428   -0.0011256937
  -0.0000094474    0.0000549227    0.0005280425
   0.0001490149    0.0000962015    0.0002214823
   0.0000421578    0.0001047091    0.0002015772
   0.0001540181    0.0001122138    0.0000899497
  -0.0001363928   -0.0001456703    0.0002052047
  -0.0000289204   -0.0001428978    0.0003304897
  -0.0001421059   -0.0000520616    0.0002000957
  -0.0000231318   -0.0000236921    0.0003360941

1    
 -0.0049079275753433   0.0000000000000000  -0.0087127634488252
   0.0117015085    0.0018533074    0.0201418769
  -0.0017106682   -0.0005584545    0.0008621348
  -0.0004125408   -0.0005474917    0.0008618796
  -0.0005827681   -0.0004826480    0.0004984849
  -0.0000295970   -0.0002749121    0.0016835487
   0.0001371721    0.0014483182    0.0014109942
   0.0000913972    0.0014571209    0.0014058882
   0.0001571815   -0.0006880369    0.0010063708
   0.0005244503   -0.0005064548   -0.0002297277
   0.0004989826   -0.0005048352   -0.0001997274
   0.0005245415   -0.0004955340   -0.0002296692
   0.0004990427   -0.0004948892   -0.0001997665
  -0.0005168731    0.0004956333   -0.0002298512
  -0.0005063866    0.0004962336   -0.0002297062
  -0.0005164138    0.0005058155   -0.0001998326
  -0.0005057852    0.0005053339   -0.0001997839
   0.0006188991   -0.0002202514   -0.0036688044
  -0.0008241643   -0.0004601423    0.0000940408
  -0.0003951652   -0.0004540126    0.0000957026
  -0.0004702020   -0.0004125601    0.0001774407
   0.0006845275    0.0005430677    0.0000011960
  -0.0002008058    0.0011283480   -0.0005255493
   0.0007607465    0.0002498835   -0.0000724789
  -0.0001972501   -0.0003736435   -0.0003090114
   0.0004782261   -0.0004932143   -0.0001569784
   0.0004041084   -0.0004688119    0.0001123275
   0.0004722765   -0.0003958383   -0.0001162292
   0.0003965918   -0.0003970160    0.0001280884
  -0.0005249590    0.0004571490   -0.0003290810
  -0.0003676684    0.0004208714    0.0000742933
  -0.0004833687    0.0004228316    0.0000843278
  -0.0004018800    0.0004262732    0.0001267174
   0.0004476621   -0.0003883405   -0.0006357283
   0.0004186533   -0.0004088697   -0.0004356187
   0.0004657981   -0.0004775230   -0.0006211825
   0.0004205135   -0.0004561192   -0.0004173665
  -0.0004200159    0.0004268163   -0.0004624240
  -0.0004496451    0.0004144125   -0.0008128651
  -0.0004233559    0.0004377704   -0.0004074000
  -0.0004610380    0.0004503981   -0.0004161951
   0.0002458503   -0.0005815842   -0.0044500005
  -0.0007919938   -0.0004281761   -0.0004466071
  -0.0003643102   -0.0004229756   -0.0004483036
  -0.0004832934   -0.0004261026   -0.0003564656
  -0.0001483159   -0.0002899699   -0.0011282381
   0.0008078927    0.0002455144   -0.0006214271
  -0.0001191390    0.0012550170   -0.0010708797
   0.0008241207    0.0006472668   -0.0004925400
  -0.0000691745   -0.0000450326   -0.0001557903
   0.0000490719    0.0000001625   -0.0001754407
  -0.0000281029    0.0000058344   -0.0001923921
   0.0000471793    0.0000391916   -0.0002005497
  -0.0004717951    0.0012239825   -0.0024946487
   0.0014030284   -0.0007703846   -0.0006015939
  -0.0004931654    0.0006094404   -0.0007255321
   0.0001887775    0.0000960646   -0.0005780651
  -0.0034078809   -0.0017273661   -0.0031497642
   0.0001158287   -0.0002666766   -0.0002597751
   0.0000098727   -0.0006723904   -0.0001355715
   0.0007444412   -0.0000099991    0.0000359142
   0.0000086177    0.0000328426    0.0005377371
   0.0000107543    0.0000131068    0.0004705676
  -0.0000152525   -0.0000326421    0.0004876531
  -0.0000032644   -0.0000112789    0.0004553857
   0.0010531544    0.0026380572    0.0005005640
  -0.0001896845   -0.0000690313   -0.0012652805
   0.0002324389   -0.0009466584   -0.0010942344
   0.0000423778   -0.0001294712   -0.0010216917
   0.0000118702    0.0000330628   -0.0006423713
   0.0000044850    0.0000139807   -0.0006991890
  -0.0000080114   -0.0000328256   -0.0006804703
  -0.0000101750   -0.0000164791   -0.0007098738
  -0.0000669451   -0.0000456421    0.0009613025
   0.0000483348   -0.0000078685    0.0009575653
  -0.0000299785    0.0000108513    0.0009387358
   0.0000518479    0.0000454932    0.0009304194
  -0.0020260155   -0.0004562273    0.0006049609
   0.0015297031   -0.0009291675    0.0007537483
  -0.0006277462    0.0007776590    0.0005822415
   0.0002940710    0.0001235072    0.0006057712
  -0.0012077691    0.0005675862   -0.0030531524
  -0.0003441118    0.0006061364   -0.0010813666
  -0.0015563559    0.0001067121   -0.0040925216
  -0.0002766527    0.0005560230   -0.0010672417
   0.0025138021   -0.0006058779   -0.0030432094
  -0.0042449821   -0.0012182064   -0.0041009499
   0.0006126175   -0.0005055251   -0.0010808255
   0.0005759360   -0.0006456541   -0.0010680639
  -0.0005968132   -0.0005924332    0.0004484999
  -0.0005925596   -0.0005909916    0.0004425736
  -0.0005964831   -0.0005939179    0.0004423684
  -0.0005912025   -0.0005871507    0.0004402630
   0.0005761795    0.0005919370    0.0005802265
   0.0006129134    0.0005898608    0.0004190013
   0.0005788355    0.0005936102    0.0004189927
   0.0006106246    0.0005907353    0.0003610056
   0.0000059896   -0.0000319425    0.0004827466
   0.0000112010   -0.0000146695    0.0004252925
  -0.0000168720    0.0000379016    0.0004461586
  -0.0000053782    0.0000137823    0.0004140226
  -0.0020178570   -0.0006564161   -0.0005656779
   0.0015047166    0.0008625135    0.0001473243
  -0.0004423643   -0.0004749205   -0.0001856513
   0.0002856252   -0.0000436902    0.0000427311
  -0.0011777011    0.0000487451   -0.0011564678
   0.0012720466    0.0008318107   -0.0005161098
  -0.0005380991   -0.0006685772   -0.0006010182
   0.0001971993   -0.0001308243   -0.0005690704
   0.0000074225   -0.0000289572   -0.0001080976
   0.0000083688   -0.0000137200   -0.0001629358
  -0.0000045514    0.0000327444   -0.0001477721
  -0.0000139827    0.0000176706   -0.0001763327
  -0.0000643971    0.0000396725   -0.0001375498
   0.0000493461    0.0000062089   -0.0001491464
  -0.0000305874   -0.0000023363   -0.0001635872
   0.0000521750   -0.0000463164   -0.0001690464
  -0.0005186564   -0.0013311686   -0.0006587083
  -0.0002219736    0.0000816442   -0.0007488063
   0.0000669858    0.0004260847   -0.0008124254
   0.0000347920    0.0000793946   -0.0005834121
  -0.0004463710   -0.0015099793    0.0000108858
   0.0003704793    0.0003198508   -0.0004844545
   0.0002445814    0.0010579228   -0.0000018688
  -0.0005888329    0.0001204393    0.0000281551
  -0.0000644089    0.0000415305    0.0004532397
   0.0000487467    0.0000000734    0.0004455795
  -0.0000254331   -0.0000054482    0.0004240327
   0.0000461774   -0.0000400314    0.0004214722
  -0.0001511583   -0.0000804451    0.0013626243
   0.0000468639   -0.0000546030    0.0007954791
  -0.0000684906   -0.0000222965    0.0008214892
  -0.0000193328   -0.0000326980    0.0006338708
   0.0000993161    0.0001148100    0.0010190341
  -0.0000071795    0.0000625654    0.0008079270
   0.0001082674   -0.0000153042    0.0010293586
  -0.0000112535    0.0000316888    0.0007790425
  -0.0005337295   -0.0005629173    0.0008534097
   0.0003973729   -0.0001966773    0.0003841638
  -0.0003641538    0.0003710481    0.0007901246
   0.0003882339    0.0000287198    0.0003659992
  -0.0004961453    0.0000211679    0.0002910609
   0.0006446460   -0.0000137721    0.0014480059
  -0.0001835844    0.0001328396    0.0003724329
  -0.0000303915    0.0002051710    0.0003526627
  -0.0004024164    0.0005560921    0.0001614088
   0.0001643689    0.0000399793   -0.0004926448
  -0.0003956870   -0.0005331674   -0.0000334334
   0.0001606005   -0.0000231404   -0.0005118851
   0.0006210451    0.0001486803    0.0007206360
  -0.0002626355   -0.0000488068   -0.0006893601
   0.0000530181   -0.0000995054   -0.0004810898
  -0.0000826987   -0.0000222639   -0.0004980990
  -0.0000860099   -0.0000149507    0.0004825079
   0.0000081312   -0.0000366713   -0.0000409175
  -0.0000505422   -0.0000615161   -0.0000669589
  -0.0000421475   -0.0000556320   -0.0001987158
   0.0000163920    0.0000320247   -0.0000711217
   0.0000594185   -0.0000311787    0.0001593131
   0.0000147104    0.0000512216   -0.0000635515
   0.0000781285    0.0001212561    0.0001596611
   0.0001106017    0.0000612353   -0.0005327177
   0.0000343515    0.0000980695   -0.0002085661
   0.0001374045    0.0000937020   -0.0002284306
   0.0000586831    0.0001156161   -0.0000665796
  -0.0001356927   -0.0001414394   -0.0003243000
  -0.0000329428   -0.0001455018   -0.0002105070
  -0.0001314274   -0.0000246827   -0.0003410992
  -0.0000373642   -0.0000518196   -0.0001898476
   0.0026829588    0.0048422027    0.0010669796
  -0.0009230152    0.0009376435    0.0010210158
   0.0015930840   -0.0043023928    0.0017827781
  -0.0009738240   -0.0004701164    0.0011353013
   0.0029699640   -0.0003669898    0.0031402043
  -0.0066402486   -0.0004816240   -0.0013816964
   0.0007690206   -0.0001555998    0.0010713071
  -0.0004506094   -0.0000155212    0.0010859694
   0.0030081560   -0.0048356021    0.0000093125
  -0.0010410248   -0.0006591045    0.0004096765
   0.0029856389    0.0049612245    0.0014805459
  -0.0012181348    0.0005879974    0.0005053030
  -0.0066704943   -0.0000113395   -0.0020542531
   0.0026777378    0.0009379481    0.0046270930
  -0.0008240417   -0.0002756181    0.0003592410
   0.0006105531   -0.0002608948    0.0005559221
   0.0002819955    0.0002324595   -0.0010968916
   0.0001226555    0.0001908513   -0.0007887720
   0.0002301040    0.0001824035   -0.0007687098
   0.0001174778    0.0001746839   -0.0006570053
  -0.0001367317   -0.0001425697   -0.0007713360
  -0.0002423070   -0.0001453743   -0.0008976578
  -0.0001309410   -0.0002339333   -0.0007662956
  -0.0002481129   -0.0002625388   -0.0009037262

17   
  0.0100000000000000   0.0000000000000000   0.0000000000000000
  -0.0022904603   -0.0005630368   -0.0002112414
   0.0002743007   -0.0004610088    0.0000192801
  -0.0006380156   -0.0004678729    0.0000180449
  -0.0004022563   -0.0004901127   -0.0000070746
   0.0008246175    0.0010881882    0.0004790547
   0.0007974139   -0.0001590798   -0.0005777003
   0.0007199288   -0.0000428650    0.0005059696
   0.0007742044    0.0011039849   -0.0005877871
   0.0004422730   -0.0005304841   -0.0000154141
   0.0005890905   -0.0004990460   -0.0000342684
   0.0004544732   -0.0004678412   -0.0000020871
   0.0005830486   -0.0005052702   -0.0000289260
  -0.0005800668    0.0004823010   -0.0000671479
  -0.0004572513    0.0004944999    0.0000403733
  -0.0005318668    0.0005135928   -0.0000544092
  -0.0004977596    0.0005095054    0.0000140496
  -0.0341257839   -0.0033082543    0.0029704389
   0.0022048142   -0.0003455412    0.0001513487
  -0.0005970376   -0.0003350290    0.0002784808
  -0.0002892485   -0.0004360343    0.0002418611
   0.0015993941    0.0038703555    0.0004353201
   0.0014260484   -0.0017517374    0.0002958193
   0.0010735141   -0.0017557002    0.0001906818
   0.0013838384    0.0019247644    0.0005496787
   0.0004322328   -0.0004465825    0.0002850697
   0.0004486389   -0.0004375375    0.0002725481
   0.0004319945   -0.0004229670    0.0002665064
   0.0004486287   -0.0004317491    0.0002870471
  -0.0004500120    0.0004224325    0.0003345790
  -0.0004392529    0.0004350381    0.0002246545
  -0.0004479628    0.0004366939    0.0002574523
  -0.0004375261    0.0004321280    0.0002964783
   0.0000049519   -0.0006165632   -0.0002394846
   0.0007154200   -0.0004202265   -0.0002650162
   0.0000093982   -0.0000992763   -0.0001726685
   0.0007148044   -0.0004628903   -0.0002753841
   0.0004058397    0.0001032502   -0.0034074734
   0.0004199959    0.0005974927    0.0022008184
  -0.0004658081    0.0004675549   -0.0003182382
  -0.0004539018    0.0004151790   -0.0002277987
  -0.0006049013   -0.0004605718   -0.0002461538
  -0.0002759839   -0.0004174991   -0.0002466684
  -0.0004076725   -0.0004038848   -0.0002504377
  -0.0004482897   -0.0004390223   -0.0002541206
   0.0004296638    0.0005207155   -0.0002081362
   0.0004390585    0.0003337088   -0.0002897389
   0.0003891563    0.0003473575   -0.0002063405
   0.0004736218    0.0005262284   -0.0002931021
   0.0000066969   -0.0000038510   -0.0003493797
  -0.0000116656   -0.0000039025   -0.0003340186
   0.0000168260    0.0000148394   -0.0003445003
  -0.0000101701   -0.0000054876   -0.0003341993
   0.0026690643   -0.0016847218   -0.0007456767
  -0.0015552017    0.0010837907    0.0002030224
   0.0004300535    0.0002493777   -0.0002426070
  -0.0003726837    0.0000082737   -0.0003252462
   0.0002674068   -0.0001507394    0.0001446788
  -0.0003067183    0.0001886192    0.0004846535
   0.0001619543   -0.0000510846    0.0003517121
  -0.0001182427    0.0000045287    0.0003412718
   0.0000741116    0.0000038873    0.0001904152
  -0.0001575775    0.0000295653    0.0004763441
   0.0001040804    0.0000725145    0.0002929241
  -0.0001097976   -0.0000830392    0.0004055627
   0.0070827749    0.0019914620   -0.0044984347
  -0.0021045206    0.0015789046   -0.0013994310
   0.0006111162    0.0001317567   -0.0009823745
  -0.0003934584   -0.0001050541   -0.0008821915
   0.0000449934    0.0000375208   -0.0008345780
  -0.0000281926   -0.0000145945   -0.0008180518
   0.0000144226    0.0000091233   -0.0008117317
  -0.0000210168   -0.0000167529   -0.0008253687
   0.0005054220    0.0002183116    0.0009088637
  -0.0002444577   -0.0000411256    0.0007293469
   0.0001644015    0.0000509869    0.0008497733
  -0.0001857160   -0.0001201573    0.0007622007
   0.0002067927   -0.0001632857    0.0009868914
  -0.0002517526    0.0002149528    0.0006258847
   0.0000784526   -0.0000406732    0.0007533200
  -0.0000376118   -0.0000071753    0.0008173196
   0.0002691260    0.0007721838    0.0001776208
  -0.0010168152    0.0004640089   -0.0001153195
   0.0004632783    0.0005712000    0.0002609800
  -0.0010984353    0.0007028501   -0.0001811511
   0.0000837490   -0.0004011602   -0.0019984411
   0.0003605727   -0.0008005454    0.0019912826
   0.0006049518   -0.0006741413   -0.0000880372
   0.0006280309   -0.0005622059    0.0000772332
  -0.0005402022   -0.0005654721    0.0000941358
  -0.0006370386   -0.0005772700   -0.0001292714
  -0.0005444170   -0.0006201763    0.0000727453
  -0.0006255375   -0.0006053922   -0.0001369615
   0.0007486269    0.0006071825   -0.0002842731
   0.0005158438    0.0005955243    0.0000285628
   0.0006506699    0.0005811772    0.0000015823
   0.0005280209    0.0005951663   -0.0000022251
   0.0000205156    0.0000959078    0.0001424293
  -0.0001742256   -0.0000514973    0.0004481846
   0.0001108414   -0.0001117192    0.0002308644
  -0.0001170245    0.0001069476    0.0003866074
   0.0002253115    0.0001351348    0.0004273023
  -0.0002432919   -0.0001871505    0.0001292635
   0.0000831801    0.0000638326    0.0002459155
  -0.0000435643    0.0000115003    0.0002682758
   0.0049600731    0.0013686322    0.0009005263
  -0.0015564141   -0.0012140629    0.0002055507
   0.0004775153   -0.0001151016   -0.0002608037
  -0.0003750659   -0.0000236676   -0.0002431743
   0.0000366059   -0.0000262638   -0.0003124552
  -0.0000297011    0.0000141236   -0.0002962339
   0.0000145055   -0.0000105144   -0.0002936415
  -0.0000209847    0.0000189267   -0.0003027049
   0.0000063946    0.0000059821   -0.0003100702
  -0.0000123409    0.0000033177   -0.0003014149
   0.0000155565   -0.0000161007   -0.0003050569
  -0.0000024677    0.0000030484   -0.0003079445
   0.0036531296    0.0006105303   -0.0015231873
  -0.0020675857   -0.0014048912   -0.0010230117
   0.0002991486   -0.0005218252   -0.0003580645
  -0.0003009657    0.0000076703   -0.0002851534
   0.0002425780    0.0001771451    0.0001927924
  -0.0003014878   -0.0002184249    0.0004315949
   0.0001706179    0.0000510647    0.0003644952
  -0.0001194099   -0.0000088853    0.0002980703
   0.0005739184   -0.0002146429    0.0002414337
  -0.0002529867    0.0000763135    0.0002368705
   0.0001364910   -0.0000886540    0.0003440559
  -0.0001460591    0.0000950015    0.0002438369
  -0.0000140806   -0.0000404085    0.0003763170
  -0.0000775295   -0.0000456243    0.0004078373
  -0.0000411875   -0.0000446560    0.0004082549
  -0.0000508519   -0.0000444962    0.0004018176
   0.0000531515    0.0000393507    0.0003910305
   0.0000449075    0.0000587810    0.0004087035
   0.0000549484    0.0000541511    0.0003933326
   0.0000402993    0.0000288936    0.0004115455
   0.0027946707    0.0003342275   -0.0001830339
  -0.0007017357    0.0000568798    0.0005921461
   0.0016886074   -0.0000265122    0.0002720623
  -0.0005103029   -0.0000480876    0.0005500058
   0.0081176679    0.0003625466   -0.0036010982
  -0.0050099366    0.0000733183    0.0021266041
   0.0000269171    0.0001441707    0.0004058387
  -0.0000691320   -0.0001067443    0.0005057634
   0.0001517158   -0.0000499787   -0.0004593962
  -0.0000557116   -0.0000427431   -0.0004509003
   0.0001517442   -0.0000564791   -0.0003880978
  -0.0000622050   -0.0000309570   -0.0004941657
  -0.0000258016    0.0000348719   -0.0007320444
  -0.0000982218    0.0000631358   -0.0001927980
  -0.0000284550    0.0000621021   -0.0004146748
  -0.0000291297    0.0000277644   -0.0004865463
   0.0023239951   -0.0000413268    0.0007918018
  -0.0007579455    0.0000028385   -0.0002989481
   0.0000202896   -0.0000559041   -0.0003905934
  -0.0001407925   -0.0000434892   -0.0004033796
   0.0000084125   -0.0003212862    0.0003393623
  -0.0000242452    0.0003891497   -0.0010082996
  -0.0001062405    0.0005281706    0.0004099540
  -0.0000860918   -0.0003336737   -0.0012040627
   0.0001080327    0.0001472126    0.0004030990
   0.0001782799    0.0001457666    0.0002844604
   0.0000993960    0.0001464582    0.0003044826
   0.0001701723    0.0001483830    0.0002943182
  -0.0001694014   -0.0001682713    0.0002706600
  -0.0001248427   -0.0001619674    0.0003638219
  -0.0001678350   -0.0001331779    0.0002983917
  -0.0001218903   -0.0001366303    0.0003503108
  -0.0062319627   -0.0005653998    0.0003765432
   0.0020934065    0.0004198906    0.0001953543
  -0.0074225609    0.0007531519   -0.0005305009
   0.0020521039   -0.0000522027    0.0003425500
   0.0088435372   -0.0017325995    0.0115486442
   0.0062185505    0.0005153452   -0.0069388623
   0.0003572911   -0.0001305891    0.0003502521
   0.0005172376    0.0000790511    0.0001055651
  -0.0005245224    0.0002053038   -0.0003429709
   0.0002840180    0.0001520131   -0.0001763506
  -0.0004536028    0.0001262633   -0.0002891320
   0.0003070854    0.0001113651   -0.0001700082
   0.0000264128   -0.0000931643    0.0008814593
   0.0002651731   -0.0002321428   -0.0014456155
   0.0000057694   -0.0001582291   -0.0001842290
   0.0000935164   -0.0001414889   -0.0003481013
  -0.0003344755   -0.0000536424    0.0008192707
   0.0005406747    0.0001546321   -0.0004347857
  -0.0001565880    0.0001877162   -0.0003106362
   0.0004824190    0.0001422218   -0.0002854963
  -0.0003522840   -0.0002445342   -0.0008738753
   0.0000206451   -0.0001713580    0.0001930234
  -0.0004629812   -0.0000909731   -0.0009706660
   0.0000191695   -0.0000550545    0.0003259359

17   
 -0.0100000000000000   0.0000000000000000   0.0000000000000000
   0.0012702480   -0.0004335036    0.0002076305
  -0.0012724955   -0.0005372205   -0.0000155869
  -0.0003816899   -0.0005093189   -0.0000173525
  -0.0005965129   -0.0004868524    0.0000093544
   0.0001744483   -0.0001087250   -0.0004775465
   0.0002236741    0.0011364399    0.0005766659
   0.0002783089    0.0010405377   -0.0005052903
   0.0002463875   -0.0001048534    0.0005867387
   0.0005695086   -0.0004828394   -0.0000247084
   0.0004447776   -0.0005126076   -0.0000073131
   0.0005567440   -0.0005207480   -0.0000375112
   0.0004508503   -0.0004857344   -0.0000127012
  -0.0004554079    0.0005083787    0.0000262685
  -0.0005524044    0.0004957483   -0.0000804350
  -0.0005017690    0.0004988429    0.0000130636
  -0.0005137203    0.0005030523   -0.0000550618
   0.0327746083    0.0025461331   -0.0028302766
  -0.0030742403   -0.0005223218    0.0003856543
  -0.0002891034   -0.0005101113    0.0002544891
  -0.0005685525   -0.0004042993    0.0002915943
  -0.0007371923   -0.0029980825    0.0001032993
  -0.0005424476    0.0026110207    0.0002419794
  -0.0002149482    0.0026059897    0.0003453393
  -0.0005017606   -0.0010686007   -0.0000134329
   0.0004434490   -0.0004347199    0.0002343832
   0.0004388472   -0.0004435807    0.0002467010
   0.0004433265   -0.0004369133    0.0002532306
   0.0004388276   -0.0004284968    0.0002322307
  -0.0004490794    0.0004357831    0.0001850548
  -0.0004386325    0.0004228649    0.0002947976
  -0.0004510826    0.0004329622    0.0002620590
  -0.0004406808    0.0004378846    0.0002229937
   0.0008721325   -0.0002716240   -0.0002635129
   0.0001723982   -0.0004599441   -0.0002473604
   0.0008654431   -0.0007475076   -0.0003332526
   0.0001737246   -0.0003979749   -0.0002373577
  -0.0012978613    0.0007530462    0.0028684938
  -0.0012934733    0.0002581527   -0.0027366889
  -0.0004341738    0.0004025620   -0.0001928488
  -0.0004228727    0.0004551322   -0.0002832435
  -0.0002812091   -0.0004070446   -0.0002855118
  -0.0005819114   -0.0004501784   -0.0002853220