q-position: [    0.0000000,    0.0000000,    0.0000000 ]
point_group: -42m
transformation_matrix:
- [  1.0000000,  0.0000000,  0.0000000 ]
- [  0.0000000,  1.0000000,  0.0000000 ]
- [  0.0000000,  0.0000000,  1.0000000 ]
rotations:
- matrix:
  - [  1,  0,  0 ]
  - [  0,  1,  0 ]
  - [  0,  0,  1 ]
  symbol: E
- matrix:
  - [  0,  1,  0 ]
  - [ -1,  0,  0 ]
  - [  0,  0, -1 ]
  symbol: S4
- matrix:
  - [ -1,  0,  0 ]
  - [  0, -1,  0 ]
  - [  0,  0,  1 ]
  symbol: C2z
- matrix:
  - [  0, -1,  0 ]
  - [  1,  0,  0 ]
  - [  0,  0, -1 ]
  symbol: S4
- matrix:
  - [  1,  0,  0 ]
  - [  0, -1,  0 ]
  - [  0,  0, -1 ]
  symbol: C2'
- matrix:
  - [  0,  1,  0 ]
  - [  1,  0,  0 ]
  - [  0,  0,  1 ]
  symbol: sgd
- matrix:
  - [ -1,  0,  0 ]
  - [  0,  1,  0 ]
  - [  0,  0, -1 ]
  symbol: C2'
- matrix:
  - [  0, -1,  0 ]
  - [ -1,  0,  0 ]
  - [  0,  0,  1 ]
  symbol: sgd
normal_modes:
- band_indices: [ 1, 2 ]
  frequency: -0.1361539653  
  ir_label: E
  characters: [ [  2,   0.0 ], [  0,   0.0 ], [  2, 180.0 ], [  0,   0.0 ], [  0,   0.0 ], [  0,   0.0 ], [  0, 180.0 ], [  0, 180.0 ] ]
- band_indices: [ 3 ]
  frequency: -0.0003472788  
  ir_label: B2
  characters: [ [  1,   0.0 ], [  1, 180.0 ], [  1,   0.0 ], [  1, 180.0 ], [  1, 180.0 ], [  1,   0.0 ], [  1, 180.0 ], [  1,   0.0 ] ]
- band_indices: [ 4 ]
  frequency: 2.3752198614   
  ir_label: B1
  characters: [ [  1,   0.0 ], [  1, 180.0 ], [  1,   0.0 ], [  1, 180.0 ], [  1,   0.0 ], [  1, 180.0 ], [  1,   0.0 ], [  1, 180.0 ] ]
- band_indices: [ 5, 6 ]
  frequency: 2.4742718270   
  ir_label: E
  characters: [ [  2,   0.0 ], [  0,   0.0 ], [  2, 180.0 ], [  0,   0.0 ], [  0, 180.0 ], [  0,   0.0 ], [  0, 180.0 ], [  0, 180.0 ] ]
- band_indices: [ 7, 8 ]
  frequency: 2.9499236479   
  ir_label: E
  characters: [ [  2,   0.0 ], [  0, 180.0 ], [  2, 180.0 ], [  0,   0.0 ], [  0,   0.0 ], [  0,   0.0 ], [  0, 180.0 ], [  0, 180.0 ] ]
- band_indices: [ 9 ]
  frequency: 3.1022893519   
  ir_label: A1
  characters: [ [  1,   0.0 ], [  1,   0.0 ], [  1,   0.0 ], [  1,   0.0 ], [  1,   0.0 ], [  1,   0.0 ], [  1,   0.0 ], [  1,   0.0 ] ]
- band_indices: [ 10 ]
  frequency: 3.7399091231   
  ir_label: B2
  characters: [ [  1,   0.0 ], [  1, 180.0 ], [  1,   0.0 ], [  1, 180.0 ], [  1, 180.0 ], [  1,   0.0 ], [  1, 180.0 ], [  1,   0.0 ] ]
- band_indices: [ 11, 12 ]
  frequency: 4.6326991767   
  ir_label: E
  characters: [ [  2,   0.0 ], [  0,   0.0 ], [  2, 180.0 ], [  0, 180.0 ], [  0,   0.0 ], [  0,   0.0 ], [  0, 180.0 ], [  0, 180.0 ] ]
- band_indices: [ 13, 14 ]
  frequency: 4.9555758840   
  ir_label: E
  characters: [ [  2,   0.0 ], [  0,   0.0 ], [  2, 180.0 ], [  0, 180.0 ], [  0,   0.0 ], [  0, 180.0 ], [  0, 180.0 ], [  0,   0.0 ] ]
- band_indices: [ 15 ]
  frequency: 5.8282687905   
  ir_label: B1
  characters: [ [  1,   0.0 ], [  1, 180.0 ], [  1,   0.0 ], [  1, 180.0 ], [  1,   0.0 ], [  1, 180.0 ], [  1,   0.0 ], [  1, 180.0 ] ]
- band_indices: [ 16, 17 ]
  frequency: 6.2012226478   
  ir_label: E
  characters: [ [  2,   0.0 ], [  0,   0.0 ], [  2, 180.0 ], [  0,   0.0 ], [  0,   0.0 ], [  0, 180.0 ], [  0, 180.0 ], [  0,   0.0 ] ]
- band_indices: [ 18 ]
  frequency: 6.3134033995   
  ir_label: A2
  characters: [ [  1,   0.0 ], [  1,   0.0 ], [  1,   0.0 ], [  1,   0.0 ], [  1, 180.0 ], [  1, 180.0 ], [  1, 180.0 ], [  1, 180.0 ] ]
- band_indices: [ 19 ]
  frequency: 6.5738002513   
  ir_label: B2
  characters: [ [  1,   0.0 ], [  1, 180.0 ], [  1,   0.0 ], [  1, 180.0 ], [  1, 180.0 ], [  1,   0.0 ], [  1, 180.0 ], [  1,   0.0 ] ]
- band_indices: [ 20 ]
  frequency: 6.5782010004   
  ir_label: A1
  characters: [ [  1,   0.0 ], [  1,   0.0 ], [  1,   0.0 ], [  1,   0.0 ], [  1,   0.0 ], [  1,   0.0 ], [  1,   0.0 ], [  1,   0.0 ] ]
- band_indices: [ 21 ]
  frequency: 13.1497777628  
  ir_label: B2
  characters: [ [  1,   0.0 ], [  1, 180.0 ], [  1,   0.0 ], [  1, 180.0 ], [  1, 180.0 ], [  1,   0.0 ], [  1, 180.0 ], [  1,   0.0 ] ]
- band_indices: [ 22 ]
  frequency: 13.3226273740  
  ir_label: A1
  characters: [ [  1,   0.0 ], [  1,   0.0 ], [  1,   0.0 ], [  1,   0.0 ], [  1,   0.0 ], [  1,   0.0 ], [  1,   0.0 ], [  1,   0.0 ] ]
- band_indices: [ 23, 24 ]
  frequency: 13.7522927990  
  ir_label: E
  characters: [ [  2,   0.0 ], [  0,   0.0 ], [  2, 180.0 ], [  0, 180.0 ], [  0,   0.0 ], [  0,   0.0 ], [  0, 180.0 ], [  0, 180.0 ] ]
