phonopy:
  version: 2.15.0
  calculator: aims
  frequency_unit_conversion_factor: 15.633302
  symmetry_tolerance: 1.00000e-05
  configuration:
    create_displacements: ".true."
    dim: "3 3 3"
    calculator: "aims"

physical_unit:
  atomic_mass: "AMU"
  length: "angstrom"
  force_constants: "eV/angstrom^2"

space_group:
  type: "P-42_1m"
  number: 113
  Hall_symbol: "P -4 2ab"

supercell_matrix:
- [   3,   0,   0 ]
- [   0,   3,   0 ]
- [   0,   0,   3 ]

primitive_cell:
  lattice:
  - [     6.786007469999999,     0.000000000000000,     0.000000000000000 ] # a
  - [     0.000000000000000,     6.786007469999999,     0.000000000000000 ] # b
  - [     0.000000000000000,     0.000000000000000,     4.094285749999999 ] # c
  points:
  - symbol: Ba # 1
    coordinates: [  0.000000000000000,  0.000000000000000,  0.000000000000000 ]
    mass: 137.327000
  - symbol: Ba # 2
    coordinates: [  0.500000000000000,  0.500000000000000,  0.000000000000000 ]
    mass: 137.327000
  - symbol: S  # 3
    coordinates: [  0.000000000000000,  0.500000000000000,  0.207084200000000 ]
    mass: 32.065000
  - symbol: S  # 4
    coordinates: [  0.500000000000000,  0.000000000000000,  0.792915800000000 ]
    mass: 32.065000
  - symbol: S  # 5
    coordinates: [  0.182239860000000,  0.682239860000000,  0.483408460000000 ]
    mass: 32.065000
  - symbol: S  # 6
    coordinates: [  0.817760140000000,  0.317760140000000,  0.483408460000000 ]
    mass: 32.065000
  - symbol: S  # 7
    coordinates: [  0.682239860000000,  0.817760140000000,  0.516591540000000 ]
    mass: 32.065000
  - symbol: S  # 8
    coordinates: [  0.317760140000000,  0.182239860000000,  0.516591540000000 ]
    mass: 32.065000
  reciprocal_lattice: # without 2pi
  - [     0.147362054112210,     0.000000000000000,     0.000000000000000 ] # a*
  - [     0.000000000000000,     0.147362054112210,     0.000000000000000 ] # b*
  - [     0.000000000000000,     0.000000000000000,     0.244242845043241 ] # c*

unit_cell:
  lattice:
  - [     6.786007470000000,     0.000000000000000,     0.000000000000000 ] # a
  - [     0.000000000000000,     6.786007470000000,     0.000000000000000 ] # b
  - [     0.000000000000000,     0.000000000000000,     4.094285750000000 ] # c
  points:
  - symbol: Ba # 1
    coordinates: [  0.000000000000000,  0.000000000000000,  0.000000000000000 ]
    mass: 137.327000
    reduced_to: 1
  - symbol: Ba # 2
    coordinates: [  0.500000000000000,  0.500000000000000,  0.000000000000000 ]
    mass: 137.327000
    reduced_to: 2
  - symbol: S  # 3
    coordinates: [  0.000000000000000,  0.500000000000000,  0.207084200000000 ]
    mass: 32.065000
    reduced_to: 3
  - symbol: S  # 4
    coordinates: [  0.500000000000000,  0.000000000000000,  0.792915800000000 ]
    mass: 32.065000
    reduced_to: 4
  - symbol: S  # 5
    coordinates: [  0.182239860000000,  0.682239860000000,  0.483408460000000 ]
    mass: 32.065000
    reduced_to: 5
  - symbol: S  # 6
    coordinates: [  0.817760140000000,  0.317760140000000,  0.483408460000000 ]
    mass: 32.065000
    reduced_to: 6
  - symbol: S  # 7
    coordinates: [  0.682239860000000,  0.817760140000000,  0.516591540000000 ]
    mass: 32.065000
    reduced_to: 7
  - symbol: S  # 8
    coordinates: [  0.317760140000000,  0.182239860000000,  0.516591540000000 ]
    mass: 32.065000
    reduced_to: 8

supercell:
  lattice:
  - [    20.358022410000000,     0.000000000000000,     0.000000000000000 ] # a
  - [     0.000000000000000,    20.358022410000000,     0.000000000000000 ] # b
  - [     0.000000000000000,     0.000000000000000,    12.282857249999999 ] # c
  points:
  - symbol: Ba # 1
    coordinates: [  0.000000000000000,  0.000000000000000,  0.000000000000000 ]
    mass: 137.327000
    reduced_to: 1
  - symbol: Ba # 2
    coordinates: [  0.333333333333333,  0.000000000000000,  0.000000000000000 ]
    mass: 137.327000
    reduced_to: 1
  - symbol: Ba # 3
    coordinates: [  0.666666666666667,  0.000000000000000,  0.000000000000000 ]
    mass: 137.327000
    reduced_to: 1
  - symbol: Ba # 4
    coordinates: [  0.000000000000000,  0.333333333333333,  0.000000000000000 ]
    mass: 137.327000
    reduced_to: 1
  - symbol: Ba # 5
    coordinates: [  0.333333333333333,  0.333333333333333,  0.000000000000000 ]
    mass: 137.327000
    reduced_to: 1
  - symbol: Ba # 6
    coordinates: [  0.666666666666667,  0.333333333333333,  0.000000000000000 ]
    mass: 137.327000
    reduced_to: 1
  - symbol: Ba # 7
    coordinates: [  0.000000000000000,  0.666666666666667,  0.000000000000000 ]
    mass: 137.327000
    reduced_to: 1
  - symbol: Ba # 8
    coordinates: [  0.333333333333333,  0.666666666666667,  0.000000000000000 ]
    mass: 137.327000
    reduced_to: 1
  - symbol: Ba # 9
    coordinates: [  0.666666666666667,  0.666666666666667,  0.000000000000000 ]
    mass: 137.327000
    reduced_to: 1
  - symbol: Ba # 10
    coordinates: [  0.000000000000000,  0.000000000000000,  0.333333333333333 ]
    mass: 137.327000
    reduced_to: 1
  - symbol: Ba # 11
    coordinates: [  0.333333333333333,  0.000000000000000,  0.333333333333333 ]
    mass: 137.327000
    reduced_to: 1
  - symbol: Ba # 12
    coordinates: [  0.666666666666667,  0.000000000000000,  0.333333333333333 ]
    mass: 137.327000
    reduced_to: 1
  - symbol: Ba # 13
    coordinates: [  0.000000000000000,  0.333333333333333,  0.333333333333333 ]
    mass: 137.327000
    reduced_to: 1
  - symbol: Ba # 14
    coordinates: [  0.333333333333333,  0.333333333333333,  0.333333333333333 ]
    mass: 137.327000
    reduced_to: 1
  - symbol: Ba # 15
    coordinates: [  0.666666666666667,  0.333333333333333,  0.333333333333333 ]
    mass: 137.327000
    reduced_to: 1
  - symbol: Ba # 16
    coordinates: [  0.000000000000000,  0.666666666666667,  0.333333333333333 ]
    mass: 137.327000
    reduced_to: 1
  - symbol: Ba # 17
    coordinates: [  0.333333333333333,  0.666666666666667,  0.333333333333333 ]
    mass: 137.327000
    reduced_to: 1
  - symbol: Ba # 18
    coordinates: [  0.666666666666667,  0.666666666666667,  0.333333333333333 ]
    mass: 137.327000
    reduced_to: 1
  - symbol: Ba # 19
    coordinates: [  0.000000000000000,  0.000000000000000,  0.666666666666667 ]
    mass: 137.327000
    reduced_to: 1
  - symbol: Ba # 20
    coordinates: [  0.333333333333333,  0.000000000000000,  0.666666666666667 ]
    mass: 137.327000
    reduced_to: 1
  - symbol: Ba # 21
    coordinates: [  0.666666666666667,  0.000000000000000,  0.666666666666667 ]
    mass: 137.327000
    reduced_to: 1
  - symbol: Ba # 22
    coordinates: [  0.000000000000000,  0.333333333333333,  0.666666666666667 ]
    mass: 137.327000
    reduced_to: 1
  - symbol: Ba # 23
    coordinates: [  0.333333333333333,  0.333333333333333,  0.666666666666667 ]
    mass: 137.327000
    reduced_to: 1
  - symbol: Ba # 24
    coordinates: [  0.666666666666667,  0.333333333333333,  0.666666666666667 ]
    mass: 137.327000
    reduced_to: 1
  - symbol: Ba # 25
    coordinates: [  0.000000000000000,  0.666666666666667,  0.666666666666667 ]
    mass: 137.327000
    reduced_to: 1
  - symbol: Ba # 26
    coordinates: [  0.333333333333333,  0.666666666666667,  0.666666666666667 ]
    mass: 137.327000
    reduced_to: 1
  - symbol: Ba # 27
    coordinates: [  0.666666666666667,  0.666666666666667,  0.666666666666667 ]
    mass: 137.327000
    reduced_to: 1
  - symbol: Ba # 28
    coordinates: [  0.166666666666667,  0.166666666666667,  0.000000000000000 ]
    mass: 137.327000
    reduced_to: 28
  - symbol: Ba # 29
    coordinates: [  0.500000000000000,  0.166666666666667,  0.000000000000000 ]
    mass: 137.327000
    reduced_to: 28
  - symbol: Ba # 30
    coordinates: [  0.833333333333333,  0.166666666666667,  0.000000000000000 ]
    mass: 137.327000
    reduced_to: 28
  - symbol: Ba # 31
    coordinates: [  0.166666666666667,  0.500000000000000,  0.000000000000000 ]
    mass: 137.327000
    reduced_to: 28
  - symbol: Ba # 32
    coordinates: [  0.500000000000000,  0.500000000000000,  0.000000000000000 ]
    mass: 137.327000
    reduced_to: 28
  - symbol: Ba # 33
    coordinates: [  0.833333333333333,  0.500000000000000,  0.000000000000000 ]
    mass: 137.327000
    reduced_to: 28
  - symbol: Ba # 34
    coordinates: [  0.166666666666667,  0.833333333333333,  0.000000000000000 ]
    mass: 137.327000
    reduced_to: 28
  - symbol: Ba # 35
    coordinates: [  0.500000000000000,  0.833333333333333,  0.000000000000000 ]
    mass: 137.327000
    reduced_to: 28
  - symbol: Ba # 36
    coordinates: [  0.833333333333333,  0.833333333333333,  0.000000000000000 ]
    mass: 137.327000
    reduced_to: 28
  - symbol: Ba # 37
    coordinates: [  0.166666666666667,  0.166666666666667,  0.333333333333333 ]
    mass: 137.327000
    reduced_to: 28
  - symbol: Ba # 38
    coordinates: [  0.500000000000000,  0.166666666666667,  0.333333333333333 ]
    mass: 137.327000
    reduced_to: 28
  - symbol: Ba # 39
    coordinates: [  0.833333333333333,  0.166666666666667,  0.333333333333333 ]
    mass: 137.327000
    reduced_to: 28
  - symbol: Ba # 40
    coordinates: [  0.166666666666667,  0.500000000000000,  0.333333333333333 ]
    mass: 137.327000
    reduced_to: 28
  - symbol: Ba # 41
    coordinates: [  0.500000000000000,  0.500000000000000,  0.333333333333333 ]
    mass: 137.327000
    reduced_to: 28
  - symbol: Ba # 42
    coordinates: [  0.833333333333333,  0.500000000000000,  0.333333333333333 ]
    mass: 137.327000
    reduced_to: 28
  - symbol: Ba # 43
    coordinates: [  0.166666666666667,  0.833333333333333,  0.333333333333333 ]
    mass: 137.327000
    reduced_to: 28
  - symbol: Ba # 44
    coordinates: [  0.500000000000000,  0.833333333333333,  0.333333333333333 ]
    mass: 137.327000
    reduced_to: 28
  - symbol: Ba # 45
    coordinates: [  0.833333333333333,  0.833333333333333,  0.333333333333333 ]
    mass: 137.327000
    reduced_to: 28
  - symbol: Ba # 46
    coordinates: [  0.166666666666667,  0.166666666666667,  0.666666666666667 ]
    mass: 137.327000
    reduced_to: 28
  - symbol: Ba # 47
    coordinates: [  0.500000000000000,  0.166666666666667,  0.666666666666667 ]
    mass: 137.327000
    reduced_to: 28
  - symbol: Ba # 48
    coordinates: [  0.833333333333333,  0.166666666666667,  0.666666666666667 ]
    mass: 137.327000
    reduced_to: 28
  - symbol: Ba # 49
    coordinates: [  0.166666666666667,  0.500000000000000,  0.666666666666667 ]
    mass: 137.327000
    reduced_to: 28
  - symbol: Ba # 50
    coordinates: [  0.500000000000000,  0.500000000000000,  0.666666666666667 ]
    mass: 137.327000
    reduced_to: 28
  - symbol: Ba # 51
    coordinates: [  0.833333333333333,  0.500000000000000,  0.666666666666667 ]
    mass: 137.327000
    reduced_to: 28
  - symbol: Ba # 52
    coordinates: [  0.166666666666667,  0.833333333333333,  0.666666666666667 ]
    mass: 137.327000
    reduced_to: 28
  - symbol: Ba # 53
    coordinates: [  0.500000000000000,  0.833333333333333,  0.666666666666667 ]
    mass: 137.327000
    reduced_to: 28
  - symbol: Ba # 54
    coordinates: [  0.833333333333333,  0.833333333333333,  0.666666666666667 ]
    mass: 137.327000
    reduced_to: 28
  - symbol: S  # 55
    coordinates: [  0.000000000000000,  0.166666666666667,  0.069028066666667 ]
    mass: 32.065000
    reduced_to: 55
  - symbol: S  # 56
    coordinates: [  0.333333333333333,  0.166666666666667,  0.069028066666667 ]
    mass: 32.065000
    reduced_to: 55
  - symbol: S  # 57
    coordinates: [  0.666666666666667,  0.166666666666667,  0.069028066666667 ]
    mass: 32.065000
    reduced_to: 55
  - symbol: S  # 58
    coordinates: [  0.000000000000000,  0.500000000000000,  0.069028066666667 ]
    mass: 32.065000
    reduced_to: 55
  - symbol: S  # 59
    coordinates: [  0.333333333333333,  0.500000000000000,  0.069028066666667 ]
    mass: 32.065000
    reduced_to: 55
  - symbol: S  # 60
    coordinates: [  0.666666666666667,  0.500000000000000,  0.069028066666667 ]
    mass: 32.065000
    reduced_to: 55
  - symbol: S  # 61
    coordinates: [  0.000000000000000,  0.833333333333333,  0.069028066666667 ]
    mass: 32.065000
    reduced_to: 55
  - symbol: S  # 62
    coordinates: [  0.333333333333333,  0.833333333333333,  0.069028066666667 ]
    mass: 32.065000
    reduced_to: 55
  - symbol: S  # 63
    coordinates: [  0.666666666666667,  0.833333333333333,  0.069028066666667 ]
    mass: 32.065000
    reduced_to: 55
  - symbol: S  # 64
    coordinates: [  0.000000000000000,  0.166666666666667,  0.402361400000000 ]
    mass: 32.065000
    reduced_to: 55
  - symbol: S  # 65
    coordinates: [  0.333333333333333,  0.166666666666667,  0.402361400000000 ]
    mass: 32.065000
    reduced_to: 55
  - symbol: S  # 66
    coordinates: [  0.666666666666667,  0.166666666666667,  0.402361400000000 ]
    mass: 32.065000
    reduced_to: 55
  - symbol: S  # 67
    coordinates: [  0.000000000000000,  0.500000000000000,  0.402361400000000 ]
    mass: 32.065000
    reduced_to: 55
  - symbol: S  # 68
    coordinates: [  0.333333333333333,  0.500000000000000,  0.402361400000000 ]
    mass: 32.065000
    reduced_to: 55
  - symbol: S  # 69
    coordinates: [  0.666666666666667,  0.500000000000000,  0.402361400000000 ]
    mass: 32.065000
    reduced_to: 55
  - symbol: S  # 70
    coordinates: [  0.000000000000000,  0.833333333333333,  0.402361400000000 ]
    mass: 32.065000
    reduced_to: 55
  - symbol: S  # 71
    coordinates: [  0.333333333333333,  0.833333333333333,  0.402361400000000 ]
    mass: 32.065000
    reduced_to: 55
  - symbol: S  # 72
    coordinates: [  0.666666666666667,  0.833333333333333,  0.402361400000000 ]
    mass: 32.065000
    reduced_to: 55
  - symbol: S  # 73
    coordinates: [  0.000000000000000,  0.166666666666667,  0.735694733333333 ]
    mass: 32.065000
    reduced_to: 55
  - symbol: S  # 74
    coordinates: [  0.333333333333333,  0.166666666666667,  0.735694733333333 ]
    mass: 32.065000
    reduced_to: 55
  - symbol: S  # 75
    coordinates: [  0.666666666666667,  0.166666666666667,  0.735694733333333 ]
    mass: 32.065000
    reduced_to: 55
  - symbol: S  # 76
    coordinates: [  0.000000000000000,  0.500000000000000,  0.735694733333333 ]
    mass: 32.065000
    reduced_to: 55
  - symbol: S  # 77
    coordinates: [  0.333333333333333,  0.500000000000000,  0.735694733333333 ]
    mass: 32.065000
    reduced_to: 55
  - symbol: S  # 78
    coordinates: [  0.666666666666667,  0.500000000000000,  0.735694733333333 ]
    mass: 32.065000
    reduced_to: 55
  - symbol: S  # 79
    coordinates: [  0.000000000000000,  0.833333333333333,  0.735694733333333 ]
    mass: 32.065000
    reduced_to: 55
  - symbol: S  # 80
    coordinates: [  0.333333333333333,  0.833333333333333,  0.735694733333333 ]
    mass: 32.065000
    reduced_to: 55
  - symbol: S  # 81
    coordinates: [  0.666666666666667,  0.833333333333333,  0.735694733333333 ]
    mass: 32.065000
    reduced_to: 55
  - symbol: S  # 82
    coordinates: [  0.166666666666667,  0.000000000000000,  0.264305266666667 ]
    mass: 32.065000
    reduced_to: 82
  - symbol: S  # 83
    coordinates: [  0.500000000000000,  0.000000000000000,  0.264305266666667 ]
    mass: 32.065000
    reduced_to: 82
  - symbol: S  # 84
    coordinates: [  0.833333333333333,  0.000000000000000,  0.264305266666667 ]
    mass: 32.065000
    reduced_to: 82
  - symbol: S  # 85
    coordinates: [  0.166666666666667,  0.333333333333333,  0.264305266666667 ]
    mass: 32.065000
    reduced_to: 82
  - symbol: S  # 86
    coordinates: [  0.500000000000000,  0.333333333333333,  0.264305266666667 ]
    mass: 32.065000
    reduced_to: 82
  - symbol: S  # 87
    coordinates: [  0.833333333333333,  0.333333333333333,  0.264305266666667 ]
    mass: 32.065000
    reduced_to: 82
  - symbol: S  # 88
    coordinates: [  0.166666666666667,  0.666666666666667,  0.264305266666667 ]
    mass: 32.065000
    reduced_to: 82
  - symbol: S  # 89
    coordinates: [  0.500000000000000,  0.666666666666667,  0.264305266666667 ]
    mass: 32.065000
    reduced_to: 82
  - symbol: S  # 90
    coordinates: [  0.833333333333333,  0.666666666666667,  0.264305266666667 ]
    mass: 32.065000
    reduced_to: 82
  - symbol: S  # 91
    coordinates: [  0.166666666666667,  0.000000000000000,  0.597638600000000 ]
    mass: 32.065000
    reduced_to: 82
  - symbol: S  # 92
    coordinates: [  0.500000000000000,  0.000000000000000,  0.597638600000000 ]
    mass: 32.065000
    reduced_to: 82
  - symbol: S  # 93
    coordinates: [  0.833333333333333,  0.000000000000000,  0.597638600000000 ]
    mass: 32.065000
    reduced_to: 82
  - symbol: S  # 94
    coordinates: [  0.166666666666667,  0.333333333333333,  0.597638600000000 ]
    mass: 32.065000
    reduced_to: 82
  - symbol: S  # 95
    coordinates: [  0.500000000000000,  0.333333333333333,  0.597638600000000 ]
    mass: 32.065000
    reduced_to: 82
  - symbol: S  # 96
    coordinates: [  0.833333333333333,  0.333333333333333,  0.597638600000000 ]
    mass: 32.065000
    reduced_to: 82
  - symbol: S  # 97
    coordinates: [  0.166666666666667,  0.666666666666667,  0.597638600000000 ]
    mass: 32.065000
    reduced_to: 82
  - symbol: S  # 98
    coordinates: [  0.500000000000000,  0.666666666666667,  0.597638600000000 ]
    mass: 32.065000
    reduced_to: 82
  - symbol: S  # 99
    coordinates: [  0.833333333333333,  0.666666666666667,  0.597638600000000 ]
    mass: 32.065000
    reduced_to: 82
  - symbol: S  # 100
    coordinates: [  0.166666666666667,  0.000000000000000,  0.930971933333333 ]
    mass: 32.065000
    reduced_to: 82
  - symbol: S  # 101
    coordinates: [  0.500000000000000,  0.000000000000000,  0.930971933333333 ]
    mass: 32.065000
    reduced_to: 82
  - symbol: S  # 102
    coordinates: [  0.833333333333333,  0.000000000000000,  0.930971933333333 ]
    mass: 32.065000
    reduced_to: 82
  - symbol: S  # 103
    coordinates: [  0.166666666666667,  0.333333333333333,  0.930971933333333 ]
    mass: 32.065000
    reduced_to: 82
  - symbol: S  # 104
    coordinates: [  0.500000000000000,  0.333333333333333,  0.930971933333333 ]
    mass: 32.065000
    reduced_to: 82
  - symbol: S  # 105
    coordinates: [  0.833333333333333,  0.333333333333333,  0.930971933333333 ]
    mass: 32.065000
    reduced_to: 82
  - symbol: S  # 106
    coordinates: [  0.166666666666667,  0.666666666666667,  0.930971933333333 ]
    mass: 32.065000
    reduced_to: 82
  - symbol: S  # 107
    coordinates: [  0.500000000000000,  0.666666666666667,  0.930971933333333 ]
    mass: 32.065000
    reduced_to: 82
  - symbol: S  # 108
    coordinates: [  0.833333333333333,  0.666666666666667,  0.930971933333333 ]
    mass: 32.065000
    reduced_to: 82
  - symbol: S  # 109
    coordinates: [  0.060746620000000,  0.227413286666667,  0.161136153333333 ]
    mass: 32.065000
    reduced_to: 109
  - symbol: S  # 110
    coordinates: [  0.394079953333333,  0.227413286666667,  0.161136153333333 ]
    mass: 32.065000
    reduced_to: 109
  - symbol: S  # 111
    coordinates: [  0.727413286666667,  0.227413286666667,  0.161136153333333 ]
    mass: 32.065000
    reduced_to: 109
  - symbol: S  # 112
    coordinates: [  0.060746620000000,  0.560746620000000,  0.161136153333333 ]
    mass: 32.065000
    reduced_to: 109
  - symbol: S  # 113
    coordinates: [  0.394079953333333,  0.560746620000000,  0.161136153333333 ]
    mass: 32.065000
    reduced_to: 109
  - symbol: S  # 114
    coordinates: [  0.727413286666667,  0.560746620000000,  0.161136153333333 ]
    mass: 32.065000
    reduced_to: 109
  - symbol: S  # 115
    coordinates: [  0.060746620000000,  0.894079953333333,  0.161136153333333 ]
    mass: 32.065000
    reduced_to: 109
  - symbol: S  # 116
    coordinates: [  0.394079953333333,  0.894079953333333,  0.161136153333333 ]
    mass: 32.065000
    reduced_to: 109
  - symbol: S  # 117
    coordinates: [  0.727413286666667,  0.894079953333333,  0.161136153333333 ]
    mass: 32.065000
    reduced_to: 109
  - symbol: S  # 118
    coordinates: [  0.060746620000000,  0.227413286666667,  0.494469486666667 ]
    mass: 32.065000
    reduced_to: 109
  - symbol: S  # 119
    coordinates: [  0.394079953333333,  0.227413286666667,  0.494469486666667 ]
    mass: 32.065000
    reduced_to: 109
  - symbol: S  # 120
    coordinates: [  0.727413286666667,  0.227413286666667,  0.494469486666667 ]
    mass: 32.065000
    reduced_to: 109
  - symbol: S  # 121
    coordinates: [  0.060746620000000,  0.560746620000000,  0.494469486666667 ]
    mass: 32.065000
    reduced_to: 109
  - symbol: S  # 122
    coordinates: [  0.394079953333333,  0.560746620000000,  0.494469486666667 ]
    mass: 32.065000
    reduced_to: 109
  - symbol: S  # 123
    coordinates: [  0.727413286666667,  0.560746620000000,  0.494469486666667 ]
    mass: 32.065000
    reduced_to: 109
  - symbol: S  # 124
    coordinates: [  0.060746620000000,  0.894079953333333,  0.494469486666667 ]
    mass: 32.065000
    reduced_to: 109
  - symbol: S  # 125
    coordinates: [  0.394079953333333,  0.894079953333333,  0.494469486666667 ]
    mass: 32.065000
    reduced_to: 109
  - symbol: S  # 126
    coordinates: [  0.727413286666667,  0.894079953333333,  0.494469486666667 ]
    mass: 32.065000
    reduced_to: 109
  - symbol: S  # 127
    coordinates: [  0.060746620000000,  0.227413286666667,  0.827802820000000 ]
    mass: 32.065000
    reduced_to: 109
  - symbol: S  # 128
    coordinates: [  0.394079953333333,  0.227413286666667,  0.827802820000000 ]
    mass: 32.065000
    reduced_to: 109
  - symbol: S  # 129
    coordinates: [  0.727413286666667,  0.227413286666667,  0.827802820000000 ]
    mass: 32.065000
    reduced_to: 109
  - symbol: S  # 130
    coordinates: [  0.060746620000000,  0.560746620000000,  0.827802820000000 ]
    mass: 32.065000
    reduced_to: 109
  - symbol: S  # 131
    coordinates: [  0.394079953333333,  0.560746620000000,  0.827802820000000 ]
    mass: 32.065000
    reduced_to: 109
  - symbol: S  # 132
    coordinates: [  0.727413286666667,  0.560746620000000,  0.827802820000000 ]
    mass: 32.065000
    reduced_to: 109
  - symbol: S  # 133
    coordinates: [  0.060746620000000,  0.894079953333333,  0.827802820000000 ]
    mass: 32.065000
    reduced_to: 109
  - symbol: S  # 134
    coordinates: [  0.394079953333333,  0.894079953333333,  0.827802820000000 ]
    mass: 32.065000
    reduced_to: 109
  - symbol: S  # 135
    coordinates: [  0.727413286666667,  0.894079953333333,  0.827802820000000 ]
    mass: 32.065000
    reduced_to: 109
  - symbol: S  # 136
    coordinates: [  0.272586713333333,  0.105920046666667,  0.161136153333333 ]
    mass: 32.065000
    reduced_to: 136
  - symbol: S  # 137
    coordinates: [  0.605920046666667,  0.105920046666667,  0.161136153333333 ]
    mass: 32.065000
    reduced_to: 136
  - symbol: S  # 138
    coordinates: [  0.939253380000000,  0.105920046666667,  0.161136153333333 ]
    mass: 32.065000
    reduced_to: 136
  - symbol: S  # 139
    coordinates: [  0.272586713333333,  0.439253380000000,  0.161136153333333 ]
    mass: 32.065000
    reduced_to: 136
  - symbol: S  # 140
    coordinates: [  0.605920046666667,  0.439253380000000,  0.161136153333333 ]
    mass: 32.065000
    reduced_to: 136
  - symbol: S  # 141
    coordinates: [  0.939253380000000,  0.439253380000000,  0.161136153333333 ]
    mass: 32.065000
    reduced_to: 136
  - symbol: S  # 142
    coordinates: [  0.272586713333333,  0.772586713333333,  0.161136153333333 ]
    mass: 32.065000
    reduced_to: 136
  - symbol: S  # 143
    coordinates: [  0.605920046666667,  0.772586713333333,  0.161136153333333 ]
    mass: 32.065000
    reduced_to: 136
  - symbol: S  # 144
    coordinates: [  0.939253380000000,  0.772586713333333,  0.161136153333333 ]
    mass: 32.065000
    reduced_to: 136
  - symbol: S  # 145
    coordinates: [  0.272586713333333,  0.105920046666667,  0.494469486666667 ]
    mass: 32.065000
    reduced_to: 136
  - symbol: S  # 146
    coordinates: [  0.605920046666667,  0.105920046666667,  0.494469486666667 ]
    mass: 32.065000
    reduced_to: 136
  - symbol: S  # 147
    coordinates: [  0.939253380000000,  0.105920046666667,  0.494469486666667 ]
    mass: 32.065000
    reduced_to: 136
  - symbol: S  # 148
    coordinates: [  0.272586713333333,  0.439253380000000,  0.494469486666667 ]
    mass: 32.065000
    reduced_to: 136
  - symbol: S  # 149
    coordinates: [  0.605920046666667,  0.439253380000000,  0.494469486666667 ]
    mass: 32.065000
    reduced_to: 136
  - symbol: S  # 150
    coordinates: [  0.939253380000000,  0.439253380000000,  0.494469486666667 ]
    mass: 32.065000
    reduced_to: 136
  - symbol: S  # 151
    coordinates: [  0.272586713333333,  0.772586713333333,  0.494469486666667 ]
    mass: 32.065000
    reduced_to: 136
  - symbol: S  # 152
    coordinates: [  0.605920046666667,  0.772586713333333,  0.494469486666667 ]
    mass: 32.065000
    reduced_to: 136
  - symbol: S  # 153
    coordinates: [  0.939253380000000,  0.772586713333333,  0.494469486666667 ]
    mass: 32.065000
    reduced_to: 136
  - symbol: S  # 154
    coordinates: [  0.272586713333333,  0.105920046666667,  0.827802820000000 ]
    mass: 32.065000
    reduced_to: 136
  - symbol: S  # 155
    coordinates: [  0.605920046666667,  0.105920046666667,  0.827802820000000 ]
    mass: 32.065000
    reduced_to: 136
  - symbol: S  # 156
    coordinates: [  0.939253380000000,  0.105920046666667,  0.827802820000000 ]
    mass: 32.065000
    reduced_to: 136
  - symbol: S  # 157
    coordinates: [  0.272586713333333,  0.439253380000000,  0.827802820000000 ]
    mass: 32.065000
    reduced_to: 136
  - symbol: S  # 158
    coordinates: [  0.605920046666667,  0.439253380000000,  0.827802820000000 ]
    mass: 32.065000
    reduced_to: 136
  - symbol: S  # 159
    coordinates: [  0.939253380000000,  0.439253380000000,  0.827802820000000 ]
    mass: 32.065000
    reduced_to: 136
  - symbol: S  # 160
    coordinates: [  0.272586713333333,  0.772586713333333,  0.827802820000000 ]
    mass: 32.065000
    reduced_to: 136
  - symbol: S  # 161
    coordinates: [  0.605920046666667,  0.772586713333333,  0.827802820000000 ]
    mass: 32.065000
    reduced_to: 136
  - symbol: S  # 162
    coordinates: [  0.939253380000000,  0.772586713333333,  0.827802820000000 ]
    mass: 32.065000
    reduced_to: 136
  - symbol: S  # 163
    coordinates: [  0.227413286666667,  0.272586713333333,  0.172197180000000 ]
    mass: 32.065000
    reduced_to: 163
  - symbol: S  # 164
    coordinates: [  0.560746620000000,  0.272586713333333,  0.172197180000000 ]
    mass: 32.065000
    reduced_to: 163
  - symbol: S  # 165
    coordinates: [  0.894079953333333,  0.272586713333333,  0.172197180000000 ]
    mass: 32.065000
    reduced_to: 163
  - symbol: S  # 166
    coordinates: [  0.227413286666667,  0.605920046666667,  0.172197180000000 ]
    mass: 32.065000
    reduced_to: 163
  - symbol: S  # 167
    coordinates: [  0.560746620000000,  0.605920046666667,  0.172197180000000 ]
    mass: 32.065000
    reduced_to: 163
  - symbol: S  # 168
    coordinates: [  0.894079953333333,  0.605920046666667,  0.172197180000000 ]
    mass: 32.065000
    reduced_to: 163
  - symbol: S  # 169
    coordinates: [  0.227413286666667,  0.939253380000000,  0.172197180000000 ]
    mass: 32.065000
    reduced_to: 163
  - symbol: S  # 170
    coordinates: [  0.560746620000000,  0.939253380000000,  0.172197180000000 ]
    mass: 32.065000
    reduced_to: 163
  - symbol: S  # 171
    coordinates: [  0.894079953333333,  0.939253380000000,  0.172197180000000 ]
    mass: 32.065000
    reduced_to: 163
  - symbol: S  # 172
    coordinates: [  0.227413286666667,  0.272586713333333,  0.505530513333333 ]
    mass: 32.065000
    reduced_to: 163
  - symbol: S  # 173
    coordinates: [  0.560746620000000,  0.272586713333333,  0.505530513333333 ]
    mass: 32.065000
    reduced_to: 163
  - symbol: S  # 174
    coordinates: [  0.894079953333333,  0.272586713333333,  0.505530513333333 ]
    mass: 32.065000
    reduced_to: 163
  - symbol: S  # 175
    coordinates: [  0.227413286666667,  0.605920046666667,  0.505530513333333 ]
    mass: 32.065000
    reduced_to: 163
  - symbol: S  # 176
    coordinates: [  0.560746620000000,  0.605920046666667,  0.505530513333333 ]
    mass: 32.065000
    reduced_to: 163
  - symbol: S  # 177
    coordinates: [  0.894079953333333,  0.605920046666667,  0.505530513333333 ]
    mass: 32.065000
    reduced_to: 163
  - symbol: S  # 178
    coordinates: [  0.227413286666667,  0.939253380000000,  0.505530513333333 ]
    mass: 32.065000
    reduced_to: 163
  - symbol: S  # 179
    coordinates: [  0.560746620000000,  0.939253380000000,  0.505530513333333 ]
    mass: 32.065000
    reduced_to: 163
  - symbol: S  # 180
    coordinates: [  0.894079953333333,  0.939253380000000,  0.505530513333333 ]
    mass: 32.065000
    reduced_to: 163
  - symbol: S  # 181
    coordinates: [  0.227413286666667,  0.272586713333333,  0.838863846666667 ]
    mass: 32.065000
    reduced_to: 163
  - symbol: S  # 182
    coordinates: [  0.560746620000000,  0.272586713333333,  0.838863846666667 ]
    mass: 32.065000
    reduced_to: 163
  - symbol: S  # 183
    coordinates: [  0.894079953333333,  0.272586713333333,  0.838863846666667 ]
    mass: 32.065000
    reduced_to: 163
  - symbol: S  # 184
    coordinates: [  0.227413286666667,  0.605920046666667,  0.838863846666667 ]
    mass: 32.065000
    reduced_to: 163
  - symbol: S  # 185
    coordinates: [  0.560746620000000,  0.605920046666667,  0.838863846666667 ]
    mass: 32.065000
    reduced_to: 163
  - symbol: S  # 186
    coordinates: [  0.894079953333333,  0.605920046666667,  0.838863846666667 ]
    mass: 32.065000
    reduced_to: 163
  - symbol: S  # 187
    coordinates: [  0.227413286666667,  0.939253380000000,  0.838863846666667 ]
    mass: 32.065000
    reduced_to: 163
  - symbol: S  # 188
    coordinates: [  0.560746620000000,  0.939253380000000,  0.838863846666667 ]
    mass: 32.065000
    reduced_to: 163
  - symbol: S  # 189