96   
44   

1    
  0.0023516571361345  -0.0085052721101322   0.0047042592452664
  -0.0025211084    0.0158426484   -0.0049765957
   0.0008048351    0.0007757083   -0.0000855402
  -0.0000254268    0.0008551978    0.0015460957
   0.0000600739    0.0004071476    0.0000903480
  -0.0007505017    0.0012739773   -0.0000892965
   0.0011556031    0.0012737753    0.0008875212
   0.0011636490    0.0012604585    0.0008947084
  -0.0007650837    0.0012773140   -0.0000755554
   0.0001650062   -0.0004032833   -0.0000649891
  -0.0005142194   -0.0037834172   -0.0008147869
  -0.0000160240    0.0000586155    0.0000569501
  -0.0001290552   -0.0000237457    0.0004090209
  -0.0003585807   -0.0044681577   -0.0008044323
   0.0002965104   -0.0010993906   -0.0000639000
   0.0000222842   -0.0007377128    0.0004078535
   0.0001160985   -0.0006365508    0.0000559710
  -0.0008649472   -0.0006480756    0.0004199142
   0.0007511309   -0.0007778676    0.0007257905
  -0.0002701923   -0.0005383017   -0.0002044333
   0.0001555944   -0.0003133659   -0.0005043563
   0.0003916966   -0.0010136248   -0.0005149313
  -0.0000535261   -0.0012155124   -0.0002155134
   0.0009838182   -0.0014732009    0.0007330065
  -0.0006465505   -0.0013197751    0.0004281669
  -0.0005750726   -0.0033489961    0.0008265413
  -0.0005640610   -0.0033631051    0.0008295352
   0.0000013697   -0.0006813059   -0.0002723457
   0.0000016251   -0.0006820223   -0.0002725195
   0.0004302125   -0.0034468037   -0.0011247122
  -0.0001523513   -0.0006153618   -0.0000024369
   0.0004271762   -0.0034185401   -0.0011579371
  -0.0001513916   -0.0006141685   -0.0000029352
   0.0005917326   -0.0003045467    0.0020182984
   0.0003885579   -0.0002275507    0.0001733382
  -0.0006798485    0.0000154576   -0.0015140686
   0.0001236700   -0.0000725978   -0.0002758188
   0.0003113205   -0.0004859103    0.0001618771
  -0.0011979220    0.0001837492   -0.0002838705
  -0.0000712088   -0.0001942483   -0.0001360939
   0.0002778141   -0.0006390941   -0.0000427763
  -0.0000640035   -0.0002192314   -0.0001930363
  -0.0008665531   -0.0001325466   -0.0014362432
   0.0001991803   -0.0003762820    0.0002551099
   0.0004332678   -0.0004835590    0.0020955632
   0.0004644573   -0.0004940662    0.0000400307
   0.0001159734   -0.0000478675   -0.0000518510
  -0.0010800100    0.0004417470   -0.0002842549
   0.0004956505   -0.0003394903    0.0002441796
   0.0019652016   -0.0001710340    0.0006472850
  -0.0012851341   -0.0002861792   -0.0003570516
  -0.0002261480   -0.0006111546   -0.0000133318
  -0.0003160752   -0.0002550876   -0.0000538122
  -0.0009972151    0.0000311914    0.0008421829
   0.0005284859   -0.0006006818    0.0012570499
  -0.0001195968   -0.0000489187   -0.0001780219
   0.0010898779    0.0001090835   -0.0013933230
  -0.0001281646   -0.0000341904   -0.0001363550
  -0.0000374056   -0.0003905223   -0.0000954628
  -0.0010924897   -0.0000638121   -0.0004426374
   0.0021779659    0.0001160595    0.0005055846
   0.0009030059   -0.0001138089   -0.0014796723
  -0.0003074513   -0.0002698644   -0.0002625089
   0.0003351315   -0.0008320000    0.0011718012
  -0.0011840944   -0.0001926979    0.0007578540
  -0.0007146391    0.0019668495    0.0004649962
   0.0003431995    0.0018677960    0.0005289056
  -0.0001633431    0.0008679040   -0.0002578200
  -0.0000335277    0.0010582083   -0.0003196505
   0.0005546904    0.0004063724    0.0005312451
  -0.0005079979    0.0005132256    0.0004693590
   0.0001765196   -0.0003958717   -0.0003193025
   0.0000466820   -0.0005852583   -0.0002569661
   0.0000944631    0.0012359615    0.0003088695
  -0.0004236908    0.0013644572    0.0000279585
   0.0000303250    0.0022076632   -0.0006209320
  -0.0003609659    0.0011105169    0.0000150488
   0.0000787392   -0.0003417073    0.0000150715
   0.0004729850    0.0007577314   -0.0006246782
   0.0000162244   -0.0000902638    0.0000273127
   0.0005351061   -0.0002211767    0.0003082265
   0.0054928530   -0.0013291801   -0.0025812725
  -0.0043561508    0.0012024408   -0.0025942848
   0.0004442382   -0.0002512300    0.0009825427
  -0.0009860784   -0.0003283558    0.0009870325
  -0.0037220979    0.0024508017   -0.0026167009
   0.0061651440   -0.0000950462   -0.0026133454
  -0.0003522560    0.0009044966    0.0009882582
   0.0010774779    0.0009827593    0.0009837882
  -0.0012869236    0.0027729379   -0.0030713494
   0.0005920981   -0.0004889941   -0.0005499939
  -0.0012765461   -0.0026192015    0.0066173431
   0.0005866037   -0.0004575170    0.0007380226
   0.0004803402    0.0007769422    0.0007404864
  -0.0014025542   -0.0014099995    0.0066848021
   0.0004858530    0.0007448671   -0.0005447348
  -0.0014033345    0.0040089680   -0.0030524091

1    
  0.0026649500263656   0.0096383630019301   0.0000000000000000
  -0.0027851085   -0.0179532449    0.0000004980
   0.0008399850   -0.0009061813    0.0000008424
   0.0000042095   -0.0008982920   -0.0000042547
   0.0000318580   -0.0004787207   -0.0000041436
   0.0002359856   -0.0014428574   -0.0005401987
   0.0002199724   -0.0014402697    0.0005280510
   0.0002357333   -0.0014428807    0.0005398261
   0.0002200657   -0.0014402073   -0.0005284112
   0.0001035952    0.0009890597    0.0000008179
  -0.0004744185    0.0052268224    0.0000006008
  -0.0000804395    0.0006654698   -0.0000043424
  -0.0000647443    0.0008025519   -0.0000044162
  -0.0003305621    0.0045530904    0.0000004839
   0.0002368339    0.0002948150    0.0000006754
   0.0000851418    0.0000882422   -0.0000044858
   0.0000520904   -0.0000291877   -0.0000044527
   0.0005084088    0.0016496991   -0.0006965878
  -0.0006099578    0.0010935503   -0.0003734399
   0.0005082884    0.0016496735    0.0006967827
  -0.0006098335    0.0010935956    0.0003729612
  -0.0003740233    0.0003943532    0.0003634761
   0.0007279232    0.0009778827    0.0006885812
  -0.0003739593    0.0003943214   -0.0003636047
   0.0007280823    0.0009778316   -0.0006887432
  -0.0006499589    0.0037940157    0.0000001844
  -0.0006373993    0.0038127273   -0.0000005963
   0.0000008046    0.0007717708    0.0000003655
   0.0000013828    0.0007727727    0.0000011754
   0.0004301347    0.0038496523    0.0000018047
  -0.0001178525    0.0007364755    0.0000004217
   0.0004301363    0.0038496566   -0.0000011007
  -0.0001178533    0.0007364697    0.0000002709
   0.0013950753    0.0005327140   -0.0004358217
  -0.0010909874    0.0002009839   -0.0006748699
   0.0005058956    0.0003729685    0.0007108304
  -0.0000761530    0.0002316637    0.0000609350
  -0.0012741013    0.0000519142    0.0005922772
   0.0012252384    0.0003452023    0.0003799233
  -0.0002627562    0.0000850634   -0.0001434996
   0.0003195462    0.0002239770   -0.0007934171
  -0.0002626932    0.0000849913    0.0001442365
   0.0003197655    0.0002239128    0.0007943008
  -0.0012741290    0.0000519592   -0.0005916070
   0.0012250055    0.0003452542   -0.0003794562
   0.0005058280    0.0003730354   -0.0007101355
  -0.0000762812    0.0002316689   -0.0000601330
   0.0013951649    0.0005326449    0.0004364407
  -0.0010909041    0.0002010224    0.0006755145
  -0.0005342113   -0.0001564167    0.0013532093
   0.0003572370    0.0003448805    0.0000867595
  -0.0003639134    0.0002116598   -0.0007979930
  -0.0000221258    0.0000720701   -0.0000296073
   0.0005453355    0.0005663359   -0.0000011729
  -0.0002858781    0.0001489108   -0.0012232339
   0.0001643064    0.0002927224    0.0001144935
  -0.0001750225    0.0004339110    0.0008860511
   0.0001643958    0.0002928076   -0.0001137448
  -0.0001749189    0.0004339014   -0.0008853064
   0.0005452613    0.0005662715    0.0000018289
  -0.0002859796    0.0001489429    0.0012238343
  -0.0003639715    0.0002115829    0.0007987106
  -0.0000223562    0.0000720054    0.0000305132
  -0.0005341731   -0.0001563745   -0.0013525451
   0.0003574635    0.0003449331   -0.0000862801
   0.0003264102    0.0000053083   -0.0000005179
  -0.0007252295   -0.0012403810   -0.0000001019
  -0.0000313480    0.0005522655    0.0000011828
  -0.0001636501    0.0003659822    0.0000009760
  -0.0005107890   -0.0027007109   -0.0000001197
   0.0005354056   -0.0014521369   -0.0000009990
   0.0000462232   -0.0010880855    0.0000010512
   0.0001794501   -0.0009019220    0.0000016194
  -0.0000116645   -0.0005333671   -0.0004936725
  -0.0003015024    0.0002804771   -0.0000432205
  -0.0000116608   -0.0005333767    0.0004943818
  -0.0003015023    0.0002804534    0.0000439040
   0.0001388267   -0.0011721031    0.0000446660
   0.0004259422   -0.0019884528    0.0004914878
   0.0001388283   -0.0011720821   -0.0000439687
   0.0004259435   -0.0019884400   -0.0004907822
  -0.0048382085   -0.0029579341    0.0000006896
   0.0062640333    0.0004550220    0.0000007463
  -0.0010260643   -0.0010888811   -0.0000002142
   0.0004999639   -0.0008879529   -0.0000004475
   0.0068416827    0.0016846654    0.0000005748
  -0.0042079223   -0.0017138109    0.0000013490
   0.0011301665    0.0003461859   -0.0000002329
  -0.0003980359    0.0001446275   -0.0000007755
  -0.0013210029   -0.0013027471    0.0055131516
   0.0005060609   -0.0008727105    0.0007329957
  -0.0013210190   -0.0013028400   -0.0055126680
   0.0005060640   -0.0008727228   -0.0007323985
   0.0003981868    0.0003612784   -0.0007326042
  -0.0014106380   -0.0000633444   -0.0054881843
   0.0003981895    0.0003613062    0.0007331706
  -0.0014106239   -0.0000633474    0.0054888839

5    
  0.0023516571361345  -0.0085052721101322   0.0047042592452664
  -0.0007332444    0.0013021397   -0.0000796229
   0.0011624060    0.0012607279    0.0008907150
   0.0011869738    0.0012984278    0.0008879818
  -0.0007515712    0.0012741303   -0.0000887125
  -0.0025182415    0.0158595059   -0.0049829384
   0.0007933263    0.0007811763   -0.0000908484
  -0.0000455396    0.0008228687    0.0015545394
   0.0000487256    0.0004128482    0.0000986143
  -0.0002246075   -0.0005244459   -0.0002085290
   0.0001988041   -0.0003037709   -0.0005084432
  -0.0008197376   -0.0006342362    0.0004201192
   0.0007941320   -0.0007684304    0.0007266470
  -0.0006767889   -0.0013329546    0.0004239511
   0.0009316073   -0.0014719224    0.0007291712
  -0.0000835616   -0.0012288769   -0.0002149666
   0.0003394843   -0.0010121615   -0.0005143562
  -0.0005521832   -0.0038108322   -0.0008198020
   0.0001133957   -0.0004016025   -0.0000699812
  -0.0001672487   -0.0000509503    0.0004175385
  -0.0000676893    0.0000602966    0.0000655619
  -0.0003176230   -0.0044642868   -0.0008096845
   0.0003368255   -0.0010932845   -0.0000686768
   0.0000628762   -0.0007339167    0.0004162945
   0.0001560612   -0.0006305282    0.0000646323
   0.0004267120   -0.0034192417   -0.0011579201
  -0.0001518351   -0.0006145702   -0.0000029162
   0.0004297399   -0.0034475001   -0.0011247185
  -0.0001527909   -0.0006157715   -0.0000024470
  -0.0005642920   -0.0033634596    0.0008295709
  -0.0005753114   -0.0033494170    0.0008265732
   0.0000014270   -0.0006824761   -0.0002722915
   0.0000011668   -0.0006818498   -0.0002722821
   0.0021788451    0.0000795612    0.0005049518
  -0.0010930376   -0.0001013565   -0.0004426254
  -0.0000375253   -0.0004281581   -0.0000951873
  -0.0001285800   -0.0000718211   -0.0001361688
   0.0003353904   -0.0007949301    0.0011720591
  -0.0011845586   -0.0001559621    0.0007581692
   0.0009028748   -0.0000771442   -0.0014795376
  -0.0003078274   -0.0002332127   -0.0002623164
   0.0019660675   -0.0001332266    0.0006463499
  -0.0012856734   -0.0002494247   -0.0003573480
  -0.0002262833   -0.0005744670   -0.0000133875
  -0.0003164769   -0.0002184153   -0.0000539685
   0.0005287633   -0.0006379244    0.0012570119
  -0.0009976945   -0.0000063687    0.0008421891
   0.0010897682    0.0000714309   -0.0013935231
  -0.0001199740   -0.0000865455   -0.0001781605
   0.0004337443   -0.0005220196    0.0020953547
   0.0001987816   -0.0004139587    0.0002551906
  -0.0008667005   -0.0001702449   -0.0014360330
  -0.0000643385   -0.0002568799   -0.0001927867
  -0.0010789431    0.0004768648   -0.0002830351
   0.0004951789   -0.0003029087    0.0002444525
   0.0004642583   -0.0004575002    0.0000402759
   0.0001156502   -0.0000112158   -0.0000516722
   0.0005921878   -0.0002687167    0.0020177818
   0.0003881811   -0.0001909250    0.0001731141
  -0.0006800252    0.0000520713   -0.0015142042
   0.0001233500   -0.0000359362   -0.0002759134
  -0.0011968286    0.0001445695   -0.0002829589
   0.0003108310   -0.0005236323    0.0001618448
   0.0002776282   -0.0006768245   -0.0000428690
  -0.0000715521   -0.0002318803   -0.0001362446
   0.0001448283    0.0022074581   -0.0006209997
  -0.0002460726    0.0011102628    0.0000151048
   0.0002091912    0.0012356805    0.0003089440
  -0.0003089424    0.0013642817    0.0000279187
   0.0004200503   -0.0002218849    0.0003083278
  -0.0000988668   -0.0000908353    0.0000272826
   0.0003576956    0.0007570943   -0.0006247728
  -0.0000362073   -0.0003423502    0.0000150991
   0.0002278827    0.0018670968    0.0005288025
  -0.0008297776    0.0019663086    0.0004651632
  -0.0001487435    0.0010575546   -0.0003195088
  -0.0002785758    0.0008671550   -0.0002578269
   0.0006691588    0.0004060833    0.0005311485
  -0.0003932988    0.0005130505    0.0004695235
   0.0002910917   -0.0003961058   -0.0003191672
   0.0001612950   -0.0005856484   -0.0002570504
  -0.0016459013   -0.0026228915    0.0066170611
   0.0002176380   -0.0004582804    0.0007376907
  -0.0016562223    0.0027693283   -0.0030712110
   0.0002230604   -0.0004898709   -0.0005496543
  -0.0010334181    0.0040075934   -0.0030529596
   0.0008552307    0.0007428416   -0.0005450499
  -0.0010325492   -0.0014114327    0.0066853280
   0.0008498088    0.0007749324    0.0007407863
  -0.0039871439    0.0012047212   -0.0025944271
   0.0058603159   -0.0013291308   -0.0025821003
  -0.0006168860   -0.0003262288    0.0009876436
   0.0008119690   -0.0002509562    0.0009832214
  -0.0040927661    0.0024521629   -0.0026169187
   0.0057947977   -0.0000951351   -0.0026140784
  -0.0007228702    0.0009056889    0.0009888075
   0.0007073478    0.0009829233    0.0009842937

5    
  0.0026649500263656   0.0096383630019301   0.0000000000000000
   0.0002511842   -0.0014153096   -0.0005327677
   0.0002344011   -0.0014425586    0.0005356293
   0.0002511449   -0.0014153340    0.0005285817
   0.0002344476   -0.0014426371   -0.0005399470
  -0.0027757019   -0.0179527337   -0.0000045687
   0.0008289049   -0.0009003874   -0.0000044863
  -0.0000155801   -0.0009303810    0.0000044513
   0.0000206037   -0.0004727672    0.0000044683
   0.0005542662    0.0016634903    0.0006922448
  -0.0005664300    0.0011036103    0.0003690950
   0.0005543030    0.0016635144   -0.0006961315
  -0.0005663078    0.0011037819   -0.0003725061
   0.0006983944    0.0009644662   -0.0006927800
  -0.0004257682    0.0003958124   -0.0003677942
   0.0006983855    0.0009645005    0.0006889086
  -0.0004258800    0.0003959221    0.0003640099
  -0.0005132231    0.0051994166   -0.0000046282
   0.0000520396    0.0009910911   -0.0000047266
  -0.0001029638    0.0007755270    0.0000045102
  -0.0001320029    0.0006674511    0.0000043274
  -0.0002905144    0.0045568745   -0.0000047677
   0.0002770624    0.0003009160   -0.0000045837
   0.0001255937    0.0000923716    0.0000043297
   0.0000921536   -0.0000229994    0.0000046858
   0.0004301621    0.0038492040   -0.0000010762
  -0.0001179829    0.0007361477    0.0000003049
   0.0004301631    0.0038492057    0.0000017939
  -0.0001179802    0.0007361471    0.0000004230
  -0.0006376911    0.0038125557   -0.0000000101
  -0.0006502638    0.0037937794    0.0000000354
   0.0000010508    0.0007724817    0.0000000133
   0.0000004595    0.0007714202   -0.0000000576
  -0.0002873578    0.0001101969    0.0012248419
   0.0005452062    0.0005287315    0.0000021371
  -0.0001753472    0.0003963775   -0.0008851624
   0.0001640795    0.0002552278   -0.0001136444
  -0.0005356013   -0.0001208684   -0.0013531827
   0.0003572363    0.0003815364   -0.0000860874
  -0.0003642556    0.0002484165    0.0007988509
  -0.0000223998    0.0001088137    0.0000305849
  -0.0005356294   -0.0001208244    0.0013538859
   0.0003572755    0.0003816291    0.0000868587
  -0.0003643500    0.0002483963   -0.0007981850
  -0.0000224860    0.0001087904   -0.0000299062
  -0.0002873222    0.0001101510   -0.0012241467
   0.0005451834    0.0005286562   -0.0000013795
  -0.0001752799    0.0003963840    0.0008858607
   0.0001641988    0.0002552603    0.0001142948
   0.0012240236    0.0003086274   -0.0003786124
  -0.0012742215    0.0000145427   -0.0005912980
   0.0003192794    0.0001865116    0.0007943197
  -0.0002629930    0.0000475833    0.0001443410
   0.0013939748    0.0005704594    0.0004361209
  -0.0010909981    0.0002379676    0.0006755571
   0.0005055628    0.0004098594   -0.0007099425
  -0.0000763780    0.0002685136   -0.0000599941
   0.0013939996    0.0005703890   -0.0004353700
  -0.0010910311    0.0002379157   -0.0006748546
   0.0005054477    0.0004098914    0.0007105894
  -0.0000764489    0.0002685206    0.0000606888
   0.0012239899    0.0003087158    0.0003793791
  -0.0012741972    0.0000145888    0.0005920078
   0.0003193647    0.0001865004   -0.0007936376
  -0.0002628930    0.0000475620   -0.0001436789
   0.0001029937   -0.0005332544    0.0004943214
  -0.0001870394    0.0002802581    0.0000439650
   0.0001029958   -0.0005332624   -0.0004936065
  -0.0001870411    0.0002802416   -0.0000432436
   0.0003108131   -0.0019887576   -0.0004906858
   0.0000234489   -0.0011727113   -0.0000439677
   0.0003108113   -0.0019887510    0.0004914083
   0.0000234504   -0.0011726936    0.0000446965
  -0.0008404191   -0.0012406678    0.0000004561
   0.0002113828    0.0000047074    0.0000008012
  -0.0002787494    0.0003653943    0.0000000925
  -0.0001464836    0.0005517963   -0.0000002232
  -0.0003961918   -0.0027005792    0.0000004381
   0.0006502167   -0.0014523689    0.0000009534
   0.0001609123   -0.0010882499   -0.0000001116
   0.0002941587   -0.0009020313   -0.0000000210
  -0.0016894503   -0.0013064249   -0.0055128368
   0.0001363946   -0.0008732307   -0.0007327662
  -0.0016894385   -0.0013064367    0.0055134482
   0.0001364125   -0.0008732005    0.0007333465
  -0.0010397567   -0.0000646987    0.0054882781
   0.0007669207    0.0003596656    0.0007327989
  -0.0010397505   -0.0000647340   -0.0054876859
   0.0007669274    0.0003596187   -0.0007321386
   0.0066338010    0.0004567646   -0.0000000660
  -0.0044703533   -0.0029569551   -0.0000002730
   0.0008695116   -0.0008857657    0.0000011274
  -0.0006582417   -0.0010883151    0.0000012132
   0.0064716657    0.0016855125   -0.0000001133
  -0.0045777979   -0.0017130793   -0.0000002377
   0.0007598784    0.0003474661    0.0000011466
  -0.0007680449    0.0001451398    0.0000012684

9    
  0.0023516571361345  -0.0085052721101322   0.0047042592452664
   0.0005392512   -0.0006349285   -0.0000657893
  -0.0007229100   -0.0041714957   -0.0008023461
   0.0000591231   -0.0002586474    0.0000562228
  -0.0000305277   -0.0003792325    0.0004023654
  -0.0000823649   -0.0006563841    0.0001497934
   0.0001970294   -0.0006497072   -0.0004522367
  -0.0006710855   -0.0011639668    0.0000637665
   0.0007877573   -0.0011722782    0.0006780620
  -0.0053443309    0.0413465758   -0.0104473124
   0.0007134167    0.0007768788   -0.0000519083
  -0.0000664792    0.0008033831    0.0014702983
  -0.0000721099    0.0005622269    0.0000595012
   0.0026743933   -0.0016939127   -0.0001479730
  -0.0022425436   -0.0003505057   -0.0002524076
   0.0000961792   -0.0002409326    0.0000887954
   0.0000439406   -0.0002928311    0.0001786981
   0.0011357845    0.0013644617    0.0009602703
  -0.0009495038    0.0014379262   -0.0001944127
  -0.0010165643    0.0014284939   -0.0001253728
   0.0011979259    0.0014187004    0.0010213790
   0.0000382568   -0.0023132467    0.0026847738
   0.0001515447   -0.0002958920   -0.0000552283
  -0.0000565526    0.0003330257   -0.0021113110
   0.0002410511   -0.0002897322    0.0000280586
   0.0004034683    0.0020302035    0.0005862465
  -0.0006043093    0.0016362837    0.0005414984
   0.0000375158    0.0003327504   -0.0002159052
  -0.0000305240    0.0003067430   -0.0002556816
  -0.0003771241    0.0007548115   -0.0001997499
   0.0005276478    0.0007075700   -0.0000018366
  -0.0003866726    0.0007844683    0.0002348917
   0.0005341804    0.0024074648   -0.0004028367
  -0.0011604234    0.0013618349   -0.0012239675
   0.0003784205    0.0003736528    0.0001906887
   0.0001187388    0.0002036803    0.0000390758
   0.0000595362    0.0003175758   -0.0001417330
   0.0000169685   -0.0014709951    0.0011048751
  -0.0011957061   -0.0000600509    0.0007013897
   0.0008446428    0.0000633909   -0.0015407715
  -0.0003437216    0.0000492761   -0.0002125066
  -0.0004651269   -0.0005762539   -0.0001452197
  -0.0003290223    0.0000245428   -0.0001227771
   0.0007900894   -0.0027195019    0.0028908777
  -0.0014535274   -0.0001813232   -0.0003061177
   0.0001467616    0.0002997754   -0.0003130867
   0.0002659192    0.0002534433   -0.0001590443
  -0.0013176754    0.0012427419    0.0016166185
   0.0001810309    0.0004560197    0.0001216922
   0.0000425403   -0.0003245783    0.0000356139
   0.0019195853   -0.0022397930    0.0016602073
  -0.0000780081   -0.0000564926   -0.0001576908
  -0.0007699158    0.0000263423   -0.0015510215
   0.0016533173    0.0013577928   -0.0012126641
  -0.0004836760    0.0004977899    0.0003448865
   0.0003950666    0.0004057981   -0.0001121993
  -0.0001507531    0.0002685028    0.0001237012
   0.0002097805    0.0003362399   -0.0002994206
  -0.0002715286    0.0003029444   -0.0003400344
   0.0018595322    0.0014603550    0.0016729520
  -0.0003350369    0.0003590299   -0.0000982581
  -0.0000804381   -0.0000745971   -0.0001772991
   0.0005330548   -0.0006210442   -0.0001351790
   0.0002943242   -0.0004439708    0.0003575046
   0.0011220720   -0.0034532340    0.0023055000
   0.0004872612   -0.0101477668    0.0011304692
  -0.0003532192    0.0008192881    0.0000672736
  -0.0000429995    0.0006965243   -0.0004245885
  -0.0001646042    0.0006379339   -0.0000762559
  -0.0012532718   -0.0047012686    0.0010515184
  -0.0000654622   -0.0038341626    0.0010621667
   0.0001322919   -0.0009573328   -0.0002903937
   0.0000892283   -0.0008434909   -0.0003038458
  -0.0008583394    0.0011229629   -0.0004481462
   0.0003778296    0.0006966190   -0.0002787658
  -0.0004765683    0.0003698092    0.0004126622
  -0.0000045643    0.0002625694    0.0001951561
   0.0007741149   -0.0053855654   -0.0021375362
   0.0000473149   -0.0009014755    0.0000148186
   0.0007855905   -0.0032729644   -0.0009153654
   0.0000318851   -0.0008421325    0.0000082041
  -0.0005383578   -0.0120189768   -0.0002236034
  -0.0000737956   -0.0018615666   -0.0002551565
  -0.0006181860   -0.0008715432    0.0002927302
  -0.0000535366   -0.0007723091    0.0002756424
  -0.0045111370    0.0030086492   -0.0030911607
   0.0083963545   -0.0007466619   -0.0030918154
  -0.0001750509    0.0004983486    0.0010723534
   0.0009605542    0.0004682547    0.0010674993
   0.0012891587   -0.0013773590    0.0008354781
  -0.0011882137   -0.0012975268    0.0009853613
   0.0013378364   -0.0008938861   -0.0010112629
  -0.0012332316   -0.0018142346   -0.0010717992
  -0.0016966110    0.0055478892   -0.0031027241
   0.0005838923    0.0002034204   -0.0003284532
  -0.0016968221   -0.0031916537    0.0095945240
   0.0005889733    0.0000924402    0.0006461099

9    
 -0.0023516571361345   0.0085052721101322  -0.0047042592452664
  -0.0004879489    0.0006869951    0.0000669905
   0.0007369345    0.0041908211    0.0008134481
  -0.0000087089    0.0003147731   -0.0000639487
   0.0000405027    0.0003695894   -0.0004125549
   0.0000889854    0.0006397436   -0.0001628637
  -0.0002065325    0.0006489731    0.0004402008
   0.0006806211    0.0011504525   -0.0000543445
  -0.0007980143    0.0011730479   -0.0006659311
   0.0053823953   -0.0403537791    0.0107894653
  -0.0008614481   -0.0000592018    0.0000537985
  -0.0000660307   -0.0001105771   -0.0014762462
  -0.0000772285    0.0001561734   -0.0000680126
  -0.0024931401    0.0009726444    0.0001438063
   0.0023588886   -0.0003454020    0.0002506794
   0.0000566265   -0.0004683923   -0.0000997784
   0.0000866227   -0.0004036202   -0.0001872887
  -0.0013560960   -0.0006916311   -0.0009683523
   0.0007149097   -0.0007384548    0.0001780736
   0.0007871453   -0.0007670111    0.0001386043
  -0.0014372280   -0.0007285968   -0.0010141739
   0.0001928942    0.0015871535   -0.0026554568
   0.0000611777   -0.0003872352    0.0000459433
   0.0002905414   -0.0010291377    0.0021100118
  -0.0000291707   -0.0003933198   -0.0000189968
  -0.0004065444   -0.0020365714   -0.0005890682
   0.0006070336   -0.0016357296   -0.0005452599
  -0.0000385197   -0.0003317300    0.0002145243
   0.0000292462   -0.0003067391    0.0002505273
   0.0003744245   -0.0007490015    0.0001999463
  -0.0005283208   -0.0006984359    0.0000020869
   0.0003833597   -0.0007811129   -0.0002330748
  -0.0005366155   -0.0024068003    0.0004090753
   0.0013385195   -0.0012050273    0.0011339195
  -0.0001907808   -0.0002279978   -0.0002744055
   0.0000606802   -0.0000555689   -0.0001242113
   0.0001273592   -0.0001713421    0.0000591284
  -0.0001970520    0.0013277066   -0.0011831138
   0.0010058195   -0.0000862092   -0.0007825895
  -0.0010331626   -0.0002102383    0.0014609061
   0.0001578618   -0.0001973583    0.0001315989
   0.0002789217    0.0004270716    0.0002329496
   0.0001430591   -0.0001721173    0.0002080037
  -0.0008986632    0.0026985687   -0.0029227058
   0.0012690684    0.0000354258    0.0003868431
   0.0000350872   -0.0001543665    0.0003904263
  -0.0000801958   -0.0001067423    0.0002433233
   0.0014970053   -0.0010858907   -0.0015249787
   0.0000071335   -0.0003113778   -0.0000366951
  -0.0002258987    0.0001034051    0.0000522781
  -0.0021569197    0.0020641395   -0.0015515802
  -0.0001071958   -0.0001657971    0.0002424376
   0.0005803220   -0.0002467790    0.0016410004
  -0.0014595152   -0.0011272360    0.0012890595
   0.0006682897   -0.0002780433   -0.0002612464
  -0.0002139190   -0.0001876925    0.0002024461
   0.0003325918   -0.0000463796   -0.0000387303
  -0.0000197404   -0.0001135602    0.0002197228
   0.0004538677   -0.0000827449    0.0002581308
  -0.0016675019   -0.0012299826   -0.0017481832
   0.0005190404   -0.0001383892    0.0000152708
  -0.0000971549   -0.0001479072    0.0000989453
  -0.0007226836    0.0003976851    0.0000525119
  -0.0004834002    0.0002223984   -0.0004439319
  -0.0014937522    0.0034753830   -0.0025876112
  -0.0007147035    0.0109866076   -0.0011617851
   0.0001416215    0.0006290206   -0.0000666019
  -0.0001684788    0.0007536173    0.0004247833
  -0.0000470027    0.0008138526    0.0000759089
   0.0014941344    0.0032305174   -0.0010488498
   0.0002579618    0.0023947072   -0.0010679815
   0.0000774998   -0.0004986515    0.0002911562
   0.0001187627   -0.0006114621    0.0003050412
   0.0004124172    0.0003301024    0.0004449028
  -0.0008162844    0.0007549706    0.0002777824
   0.0000342899    0.0010805070   -0.0004115691
  -0.0004363359    0.0011872764   -0.0001948862
  -0.0003321733    0.0038961439    0.0021971488
   0.0003914417   -0.0005546162   -0.0000126709
  -0.0003523303    0.0018440115    0.0008888261
   0.0004072066   -0.0006127711   -0.0000090586
  -0.0000927987    0.0106953369    0.0002245994
  -0.0005596444    0.0006277948    0.0002556406
  -0.0000126543   -0.0003663894   -0.0002903937
  -0.0005791422   -0.0004640070   -0.0002707063
   0.0051250742   -0.0017954285    0.0031208895
  -0.0078209503    0.0019732402    0.0031340034
   0.0008030089    0.0007327114   -0.0010735976
  -0.0003311775    0.0007632382   -0.0010690122
  -0.0011774072    0.0001400331   -0.0008299564
   0.0012872824    0.0000551774   -0.0009800318
  -0.0012271116   -0.0003379076    0.0010078039
   0.0013321007    0.0005805696    0.0010689207
   0.0015994364   -0.0043161334    0.0030627666
  -0.0006944815    0.0010270560    0.0003199041
   0.0016122965    0.0044516657   -0.0096989189
  -0.0006997109    0.0011382859   -0.0006448085

9    
  0.0026649500263656   0.0096383630019301   0.0000000000000000
  -0.0001282888    0.0007498387    0.0000005084
  -0.0000717970    0.0047781506    0.0000004559
   0.0000304634    0.0003333574   -0.0000043860
  -0.0000068041    0.0004389087   -0.0000041941
   0.0005420762    0.0013288530    0.0002743433
  -0.0004121522    0.0007180779    0.0002938606
   0.0005422899    0.0013285077   -0.0002753416
  -0.0004120200    0.0007181244   -0.0002934978
  -0.0061488619   -0.0456598039    0.0000003426
   0.0007073480   -0.0001453529    0.0000004017
  -0.0001327570   -0.0001902184   -0.0000044001
  -0.0000063545    0.0001474576   -0.0000042624
  -0.0024377098   -0.0003556050    0.0000005097
   0.0028930618    0.0011573975    0.0000002477
   0.0000193768   -0.0005059649   -0.0000042404
   0.0001217730   -0.0003884391   -0.0000043482
   0.0001608923   -0.0008945595    0.0005891838
   0.0000799802   -0.0008546839   -0.0005412018
   0.0001608354   -0.0008944415   -0.0005892297
   0.0000798867   -0.0008543250    0.0005402782
   0.0000504453    0.0003861790   -0.0026431253
   0.0001345287   -0.0004172373   -0.0000175907
   0.0000505915    0.0003860802    0.0026432338
   0.0001345380   -0.0004172809    0.0000178349
  -0.0006349262   -0.0033119543   -0.0000011388
   0.0004053939   -0.0008454172    0.0000005295
   0.0000002625   -0.0004366413    0.0000011586
   0.0000084424   -0.0002858167    0.0000007923
   0.0001636334   -0.0008212479    0.0002521693
   0.0000008667   -0.0018029675   -0.0002402287
   0.0001636174   -0.0008212511   -0.0002514576
   0.0000008711   -0.0018029683    0.0002409412
   0.0016021746   -0.0013835440    0.0014511257
  -0.0001068875   -0.0002908851   -0.0000663319
   0.0000637757   -0.0000931780   -0.0002463070
   0.0000174200   -0.0002544360   -0.0001079060
   0.0017260077    0.0030801546    0.0006007179
   0.0003450427    0.0003457215    0.0000863942