q-position: [    0.0000000,    0.0000000,    0.0000000 ]
point_group: mmm
transformation_matrix:
- [  0.5000000,  0.5000000,  0.0000000 ]
- [ -0.5000000,  0.5000000,  0.0000000 ]
- [  0.0000000,  0.0000000,  1.0000000 ]
rotations:
- matrix:
  - [  1,  0,  0 ]
  - [  0,  1,  0 ]
  - [  0,  0,  1 ]
  symbol: E
- matrix:
  - [ -1,  0,  0 ]
  - [  0, -1,  0 ]
  - [  0,  0, -1 ]
  symbol: i
- matrix:
  - [ -1,  0,  0 ]
  - [  0, -1,  0 ]
  - [  0,  0,  1 ]
  symbol: C2
- matrix:
  - [  1,  0,  0 ]
  - [  0,  1,  0 ]
  - [  0,  0, -1 ]
  symbol: sgxy
- matrix:
  - [  1,  0,  0 ]
  - [  0, -1,  0 ]
  - [  0,  0, -1 ]
  symbol: C2x
- matrix:
  - [ -1,  0,  0 ]
  - [  0,  1,  0 ]
  - [  0,  0,  1 ]
  symbol: sgyz
- matrix:
  - [ -1,  0,  0 ]
  - [  0,  1,  0 ]
  - [  0,  0, -1 ]
  symbol: C2y
- matrix:
  - [  1,  0,  0 ]
  - [  0, -1,  0 ]
  - [  0,  0,  1 ]
  symbol: sgxz
normal_modes:
- band_indices: [ 1 ]
  frequency: -2.0907701112  
  ir_label: None
  characters: [ [  1,   0.0 ], [  1, 180.0 ], [  1, 180.0 ], [  1,   0.0 ], [  1, 180.0 ], [  1,   0.0 ], [  1,   0.0 ], [  1, 180.0 ] ]
- band_indices: [ 2 ]
  frequency: -1.6594174087  
  ir_label: None
  characters: [ [  1,   0.0 ], [  1, 180.0 ], [  1,   0.0 ], [  1, 180.0 ], [  1,   0.0 ], [  1, 180.0 ], [  1,   0.0 ], [  1, 180.0 ] ]
- band_indices: [ 3 ]
  frequency: -1.1314284367  
  ir_label: None
  characters: [ [  1,   0.0 ], [  1, 180.0 ], [  1,   0.0 ], [  1, 180.0 ], [  1, 180.0 ], [  1,   0.0 ], [  1, 180.0 ], [  1,   0.0 ] ]
- band_indices: [ 4 ]
  frequency: -0.5767638588  
  ir_label: None
  characters: [ [  1,   0.0 ], [  1,   0.0 ], [  1, 180.0 ], [  1, 180.0 ], [  1,   0.0 ], [  1,   0.0 ], [  1, 180.0 ], [  1, 180.0 ] ]
- band_indices: [ 5 ]
  frequency: -0.4514438193  
  ir_label: None
  characters: [ [  1,   0.0 ], [  1, 180.0 ], [  1,   0.0 ], [  1, 180.0 ], [  1, 180.0 ], [  1,   0.0 ], [  1, 180.0 ], [  1,   0.0 ] ]
- band_indices: [ 6 ]
  frequency: -0.0995383842  
  ir_label: None
  characters: [ [  1,   0.0 ], [  1, 180.0 ], [  1, 180.0 ], [  1,   0.0 ], [  1,   0.0 ], [  1, 180.0 ], [  1, 180.0 ], [  1,   0.0 ] ]
- band_indices: [ 7 ]
  frequency: -0.0194207952  
  ir_label: None
  characters: [ [  1,   0.0 ], [  1, 180.0 ], [  1, 180.0 ], [  1,   0.0 ], [  1, 180.0 ], [  1,   0.0 ], [  1,   0.0 ], [  1, 180.0 ] ]
- band_indices: [ 8 ]
  frequency: 0.3171958401   
  ir_label: None
  characters: [ [  1,   0.0 ], [  1,   0.0 ], [  1, 180.0 ], [  1, 180.0 ], [  1, 180.0 ], [  1, 180.0 ], [  1,   0.0 ], [  1,   0.0 ] ]
- band_indices: [ 9 ]
  frequency: 0.7111759441   
  ir_label: None
  characters: [ [  1,   0.0 ], [  1,   0.0 ], [  1, 180.0 ], [  1, 180.0 ], [  1,   0.0 ], [  1,   0.0 ], [  1, 180.0 ], [  1, 180.0 ] ]
- band_indices: [ 10 ]
  frequency: 0.8295985604   
  ir_label: None
  characters: [ [  1,   0.0 ], [  1, 180.0 ], [  1, 180.0 ], [  1,   0.0 ], [  1,   0.0 ], [  1, 180.0 ], [  1, 180.0 ], [  1,   0.0 ] ]
- band_indices: [ 11 ]
  frequency: 0.8425803544   
  ir_label: None
  characters: [ [  1,   0.0 ], [  1, 180.0 ], [  1,   0.0 ], [  1, 180.0 ], [  1, 180.0 ], [  1,   0.0 ], [  1, 180.0 ], [  1,   0.0 ] ]
- band_indices: [ 12 ]
  frequency: 0.8501593731   
  ir_label: None
  characters: [ [  1,   0.0 ], [  1,   0.0 ], [  1,   0.0 ], [  1,   0.0 ], [  1,   0.0 ], [  1,   0.0 ], [  1,   0.0 ], [  1,   0.0 ] ]
- band_indices: [ 13 ]
  frequency: 0.8592014474   
  ir_label: None
  characters: [ [  1,   0.0 ], [  1,   0.0 ], [  1,   0.0 ], [  1,   0.0 ], [  1, 180.0 ], [  1, 180.0 ], [  1, 180.0 ], [  1, 180.0 ] ]
- band_indices: [ 14 ]
  frequency: 0.8729480981   
  ir_label: None
  characters: [ [  1,   0.0 ], [  1, 180.0 ], [  1,   0.0 ], [  1, 180.0 ], [  1,   0.0 ], [  1, 180.0 ], [  1,   0.0 ], [  1, 180.0 ] ]
- band_indices: [ 15 ]
  frequency: 0.9997130429   
  ir_label: None
  characters: [ [  1,   0.0 ], [  1, 180.0 ], [  1, 180.0 ], [  1,   0.0 ], [  0, 180.0 ], [  0,   0.0 ], [  0,   0.0 ], [  0, 180.0 ] ]
- band_indices: [ 16 ]
  frequency: 1.0183266467   
  ir_label: None
  characters: [ [  1,   0.0 ], [  1, 180.0 ], [  1, 180.0 ], [  1,   0.0 ], [  0,   0.0 ], [  0, 180.0 ], [  0, 180.0 ], [  0,   0.0 ] ]
- band_indices: [ 17 ]
  frequency: 1.1934092767   
  ir_label: None
  characters: [ [  1,   0.0 ], [  1, 180.0 ], [  1,   0.0 ], [  1, 180.0 ], [  1, 180.0 ], [  1,   0.0 ], [  1, 180.0 ], [  1,   0.0 ] ]
- band_indices: [ 18 ]
  frequency: 1.5924336652   
  ir_label: None
  characters: [ [  1,   0.0 ], [  1, 180.0 ], [  1, 180.0 ], [  1,   0.0 ], [  1,   0.0 ], [  1, 180.0 ], [  1, 180.0 ], [  1,   0.0 ] ]
- band_indices: [ 19 ]
  frequency: 1.9328897648   
  ir_label: None
  characters: [ [  1,   0.0 ], [  1, 180.0 ], [  1, 180.0 ], [  1,   0.0 ], [  1, 180.0 ], [  1,   0.0 ], [  1,   0.0 ], [  1, 180.0 ] ]
- band_indices: [ 20 ]
  frequency: 1.9412050459   
  ir_label: None
  characters: [ [  1,   0.0 ], [  1, 180.0 ], [  1,   0.0 ], [  1, 180.0 ], [  1,   0.0 ], [  1, 180.0 ], [  1,   0.0 ], [  1, 180.0 ] ]
- band_indices: [ 21 ]
  frequency: 1.9804305656   
  ir_label: B1g
  characters: [ [  1,   0.0 ], [  1,   0.0 ], [  1,   0.0 ], [  1,   0.0 ], [  1, 180.0 ], [  1, 180.0 ], [  1, 180.0 ], [  1, 180.0 ] ]
- band_indices: [ 22 ]
  frequency: 2.0433065438   
  ir_label: None
  characters: [ [  1,   0.0 ], [  1, 180.0 ], [  1, 180.0 ], [  1,   0.0 ], [  1,   0.0 ], [  1, 180.0 ], [  1, 180.0 ], [  1,   0.0 ] ]
- band_indices: [ 23 ]
  frequency: 2.1121566353   
  ir_label: None
  characters: [ [  1,   0.0 ], [  1,   0.0 ], [  1, 180.0 ], [  1, 180.0 ], [  1,   0.0 ], [  1,   0.0 ], [  1, 180.0 ], [  1, 180.0 ] ]
- band_indices: [ 24 ]
  frequency: 2.2067521238   
  ir_label: None
  characters: [ [  1,   0.0 ], [  1, 180.0 ], [  1, 180.0 ], [  1,   0.0 ], [  1, 180.0 ], [  1,   0.0 ], [  1,   0.0 ], [  1, 180.0 ] ]
- band_indices: [ 25 ]
  frequency: 2.4140507693   
  ir_label: None
  characters: [ [  1,   0.0 ], [  1,   0.0 ], [  1, 180.0 ], [  1, 180.0 ], [  1, 180.0 ], [  1, 180.0 ], [  1,   0.0 ], [  1,   0.0 ] ]
- band_indices: [ 26 ]
  frequency: 2.4293340339   
  ir_label: None
  characters: [ [  1,   0.0 ], [  1, 180.0 ], [  1, 180.0 ], [  1,   0.0 ], [  1,   0.0 ], [  1, 180.0 ], [  1, 180.0 ], [  1,   0.0 ] ]
- band_indices: [ 27 ]
  frequency: 2.5320779657   
  ir_label: None
  characters: [ [  1,   0.0 ], [  1, 180.0 ], [  1,   0.0 ], [  1, 180.0 ], [  1, 180.0 ], [  1,   0.0 ], [  1, 180.0 ], [  1,   0.0 ] ]
- band_indices: [ 28 ]
  frequency: 2.5834890429   
  ir_label: B1g
  characters: [ [  1,   0.0 ], [  1,   0.0 ], [  1,   0.0 ], [  1,   0.0 ], [  1, 180.0 ], [  1, 180.0 ], [  1, 180.0 ], [  1, 180.0 ] ]
- band_indices: [ 29 ]
  frequency: 2.7538881215   
  ir_label: B3u
  characters: [ [  1,   0.0 ], [  1, 180.0 ], [  1, 180.0 ], [  1,   0.0 ], [  1,   0.0 ], [  1, 180.0 ], [  1, 180.0 ], [  1,   0.0 ] ]
- band_indices: [ 30 ]
  frequency: 2.7863980169   
  ir_label: B1g
  characters: [ [  1,   0.0 ], [  1,   0.0 ], [  1,   0.0 ], [  1,   0.0 ], [  1, 180.0 ], [  1, 180.0 ], [  1, 180.0 ], [  1, 180.0 ] ]
- band_indices: [ 31 ]
  frequency: 2.7913917860   
  ir_label: None
  characters: [ [  1,   0.0 ], [  1,   0.0 ], [  1, 180.0 ], [  1, 180.0 ], [  1,   0.0 ], [  1,   0.0 ], [  1, 180.0 ], [  1, 180.0 ] ]
- band_indices: [ 32 ]
  frequency: 2.8998904048   
  ir_label: Ag
  characters: [ [  1,   0.0 ], [  1,   0.0 ], [  1,   0.0 ], [  1,   0.0 ], [  1,   0.0 ], [  1,   0.0 ], [  1,   0.0 ], [  1,   0.0 ] ]
- band_indices: [ 33 ]
  frequency: 2.9108139479   
  ir_label: None
  characters: [ [  1,   0.0 ], [  1, 180.0 ], [  1,   0.0 ], [  1, 180.0 ], [  1, 180.0 ], [  1,   0.0 ], [  1, 180.0 ], [  1,   0.0 ] ]
- band_indices: [ 34 ]
  frequency: 3.0740049012   
  ir_label: Ag
  characters: [ [  1,   0.0 ], [  1,   0.0 ], [  1,   0.0 ], [  1,   0.0 ], [  1,   0.0 ], [  1,   0.0 ], [  1,   0.0 ], [  1,   0.0 ] ]
- band_indices: [ 35 ]
  frequency: 3.0993133137   
  ir_label: None
  characters: [ [  1,   0.0 ], [  1, 180.0 ], [  1, 180.0 ], [  1,   0.0 ], [  1, 180.0 ], [  1,   0.0 ], [  1,   0.0 ], [  1, 180.0 ] ]
- band_indices: [ 36 ]
  frequency: 3.1614036731   
  ir_label: B1g
  characters: [ [  1,   0.0 ], [  1,   0.0 ], [  1,   0.0 ], [  1,   0.0 ], [  1, 180.0 ], [  1, 180.0 ], [  1, 180.0 ], [  1, 180.0 ] ]
- band_indices: [ 37 ]
  frequency: 3.2044581937   
  ir_label: None
  characters: [ [  1,   0.0 ], [  1,   0.0 ], [  1, 180.0 ], [  1, 180.0 ], [  1,   0.0 ], [  1,   0.0 ], [  1, 180.0 ], [  1, 180.0 ] ]
- band_indices: [ 38 ]
  frequency: 3.3214207684   
  ir_label: B3u
  characters: [ [  1,   0.0 ], [  1, 180.0 ], [  1, 180.0 ], [  1,   0.0 ], [  1,   0.0 ], [  1, 180.0 ], [  1, 180.0 ], [  1,   0.0 ] ]
- band_indices: [ 39 ]
  frequency: 3.4254055744   
  ir_label: None
  characters: [ [  1,   0.0 ], [  1, 180.0 ], [  1, 180.0 ], [  1,   0.0 ], [  1, 180.0 ], [  1,   0.0 ], [  1,   0.0 ], [  1, 180.0 ] ]
- band_indices: [ 40 ]
  frequency: 3.5661651663   
  ir_label: None
  characters: [ [  1,   0.0 ], [  1, 180.0 ], [  1,   0.0 ], [  1, 180.0 ], [  1,   0.0 ], [  1, 180.0 ], [  1,   0.0 ], [  1, 180.0 ] ]
- band_indices: [ 41 ]
  frequency: 3.6606355579   
  ir_label: None
  characters: [ [  1,   0.0 ], [  1, 180.0 ], [  1, 180.0 ], [  1,   0.0 ], [  1,   0.0 ], [  1, 180.0 ], [  1, 180.0 ], [  1,   0.0 ] ]
- band_indices: [ 42 ]
  frequency: 3.6713738898   
  ir_label: None
  characters: [ [  1,   0.0 ], [  1, 180.0 ], [  1,   0.0 ], [  1, 180.0 ], [  1,   0.0 ], [  1, 180.0 ], [  1,   0.0 ], [  1, 180.0 ] ]
- band_indices: [ 43 ]
  frequency: 3.7594876987   
  ir_label: None
  characters: [ [  1,   0.0 ], [  1, 180.0 ], [  1,   0.0 ], [  1, 180.0 ], [  1, 180.0 ], [  1,   0.0 ], [  1, 180.0 ], [  1,   0.0 ] ]
- band_indices: [ 44 ]
  frequency: 3.8913031676   
  ir_label: Ag
  characters: [ [  1,   0.0 ], [  1,   0.0 ], [  1,   0.0 ], [  1,   0.0 ], [  1,   0.0 ], [  1,   0.0 ], [  1,   0.0 ], [  1,   0.0 ] ]
- band_indices: [ 45 ]
  frequency: 4.0290186385   
  ir_label: None
  characters: [ [  1,   0.0 ], [  1,   0.0 ], [  1, 180.0 ], [  1, 180.0 ], [  1, 180.0 ], [  1, 180.0 ], [  1,   0.0 ], [  1,   0.0 ] ]
- band_indices: [ 46 ]
  frequency: 4.4136572137   
  ir_label: None
  characters: [ [  1,   0.0 ], [  1, 180.0 ], [  1, 180.0 ], [  1,   0.0 ], [  1, 180.0 ], [  1,   0.0 ], [  1,   0.0 ], [  1, 180.0 ] ]
- band_indices: [ 47 ]
  frequency: 4.9482272361   
  ir_label: B2g
  characters: [ [  1,   0.0 ], [  1,   0.0 ], [  1, 180.0 ], [  1, 180.0 ], [  1, 180.0 ], [  1, 180.0 ], [  1,   0.0 ], [  1,   0.0 ] ]
- band_indices: [ 48 ]
  frequency: 5.0178376543   
  ir_label: Ag
  characters: [ [  1,   0.0 ], [  1,   0.0 ], [  1,   0.0 ], [  1,   0.0 ], [  1,   0.0 ], [  1,   0.0 ], [  1,   0.0 ], [  1,   0.0 ] ]
- band_indices: [ 49 ]
  frequency: 5.1035512540   
  ir_label: B1g
  characters: [ [  1,   0.0 ], [  1,   0.0 ], [  1,   0.0 ], [  1,   0.0 ], [  1, 180.0 ], [  1, 180.0 ], [  1, 180.0 ], [  1, 180.0 ] ]
- band_indices: [ 50 ]
  frequency: 5.5706703339   
  ir_label: B2u
  characters: [ [  1,   0.0 ], [  1, 180.0 ], [  1, 180.0 ], [  1,   0.0 ], [  1, 180.0 ], [  1,   0.0 ], [  1,   0.0 ], [  1, 180.0 ] ]
- band_indices: [ 51 ]
  frequency: 5.6727243457   
  ir_label: Au
  characters: [ [  1,   0.0 ], [  1, 180.0 ], [  1,   0.0 ], [  1, 180.0 ], [  1,   0.0 ], [  1, 180.0 ], [  1,   0.0 ], [  1, 180.0 ] ]
- band_indices: [ 52 ]
  frequency: 6.0008038852   
  ir_label: B3u
  characters: [ [  1,   0.0 ], [  1, 180.0 ], [  1, 180.0 ], [  1,   0.0 ], [  1,   0.0 ], [  1, 180.0 ], [  1, 180.0 ], [  1,   0.0 ] ]
- band_indices: [ 53 ]
  frequency: 6.2034679489   
  ir_label: B1g
  characters: [ [  1,   0.0 ], [  1,   0.0 ], [  1,   0.0 ], [  1,   0.0 ], [  1, 180.0 ], [  1, 180.0 ], [  1, 180.0 ], [  1, 180.0 ] ]
- band_indices: [ 54 ]
  frequency: 6.2134280360   
  ir_label: Ag
  characters: [ [  1,   0.0 ], [  1,   0.0 ], [  1,   0.0 ], [  1,   0.0 ], [  1,   0.0 ], [  1,   0.0 ], [  1,   0.0 ], [  1,   0.0 ] ]
- band_indices: [ 55 ]
  frequency: 7.2258107771   
  ir_label: Ag
  characters: [ [  1,   0.0 ], [  1,   0.0 ], [  1,   0.0 ], [  1,   0.0 ], [  1,   0.0 ], [  1,   0.0 ], [  1,   0.0 ], [  1,   0.0 ] ]
- band_indices: [ 56 ]
  frequency: 7.2524562520   
  ir_label: None
  characters: [ [  1,   0.0 ], [  1,   0.0 ], [  1, 180.0 ], [  1, 180.0 ], [  1, 180.0 ], [  1, 180.0 ], [  1,   0.0 ], [  1,   0.0 ] ]
- band_indices: [ 57 ]
  frequency: 7.3275199049   
  ir_label: None
  characters: [ [  1,   0.0 ], [  1, 180.0 ], [  1, 180.0 ], [  1,   0.0 ], [  1, 180.0 ], [  1,   0.0 ], [  1,   0.0 ], [  1, 180.0 ] ]
- band_indices: [ 58 ]
  frequency: 7.6129904699   
  ir_label: None
  characters: [ [  1,   0.0 ], [  1, 180.0 ], [  1,   0.0 ], [  1, 180.0 ], [  1,   0.0 ], [  1, 180.0 ], [  1,   0.0 ], [  1, 180.0 ] ]
- band_indices: [ 59 ]
  frequency: 8.7650440031   
  ir_label: B2u
  characters: [ [  1,   0.0 ], [  1, 180.0 ], [  1, 180.0 ], [  1,   0.0 ], [  1, 180.0 ], [  1,   0.0 ], [  1,   0.0 ], [  1, 180.0 ] ]
- band_indices: [ 60 ]
  frequency: 8.8114044825   
  ir_label: None
  characters: [ [  1,   0.0 ], [  1, 180.0 ], [  1, 180.0 ], [  1,   0.0 ], [  1,   0.0 ], [  1, 180.0 ], [  1, 180.0 ], [  1,   0.0 ] ]
- band_indices: [ 61 ]
  frequency: 8.9574650389   
  ir_label: None
  characters: [ [  1,   0.0 ], [  1, 180.0 ], [  1, 180.0 ], [  1,   0.0 ], [  1,   0.0 ], [  1, 180.0 ], [  1, 180.0 ], [  1,   0.0 ] ]
- band_indices: [ 62 ]
  frequency: 9.0324886561   
  ir_label: B1g
  characters: [ [  1,   0.0 ], [  1,   0.0 ], [  1,   0.0 ], [  1,   0.0 ], [  1, 180.0 ], [  1, 180.0 ], [  1, 180.0 ], [  1, 180.0 ] ]
- band_indices: [ 63 ]
  frequency: 9.7868904074   
  ir_label: None
  characters: [ [  1,   0.0 ], [  1, 180.0 ], [  1,   0.0 ], [  1, 180.0 ], [  1, 180.0 ], [  1,   0.0 ], [  1, 180.0 ], [  1,   0.0 ] ]
- band_indices: [ 64 ]
  frequency: 10.0555096473  
  ir_label: None
  characters: [ [  1,   0.0 ], [  1,   0.0 ], [  1, 180.0 ], [  1, 180.0 ], [  1,   0.0 ], [  1,   0.0 ], [  1, 180.0 ], [  1, 180.0 ] ]
- band_indices: [ 65 ]
  frequency: 10.3307659452  
  ir_label: Ag
  characters: [ [  1,   0.0 ], [  1,   0.0 ], [  1,   0.0 ], [  1,   0.0 ], [  1,   0.0 ], [  1,   0.0 ], [  1,   0.0 ], [  1,   0.0 ] ]
- band_indices: [ 66 ]
  frequency: 10.7341066019  
  ir_label: B3g
  characters: [ [  1,   0.0 ], [  1,   0.0 ], [  1, 180.0 ], [  1, 180.0 ], [  1,   0.0 ], [  1,   0.0 ], [  1, 180.0 ], [  1, 180.0 ] ]
- band_indices: [ 67 ]
  frequency: 10.7341392005  
  ir_label: B3u
  characters: [ [  1,   0.0 ], [  1, 180.0 ], [  1, 180.0 ], [  1,   0.0 ], [  1,   0.0 ], [  1, 180.0 ], [  1, 180.0 ], [  1,   0.0 ] ]
- band_indices: [ 68 ]
  frequency: 10.7399764476  
  ir_label: B1g
  characters: [ [  1,   0.0 ], [  1,   0.0 ], [  1,   0.0 ], [  1,   0.0 ], [  1, 180.0 ], [  1, 180.0 ], [  1, 180.0 ], [  1, 180.0 ] ]
- band_indices: [ 69 ]
  frequency: 10.8454691165  
  ir_label: B1u
  characters: [ [  1,   0.0 ], [  1, 180.0 ], [  1,   0.0 ], [  1, 180.0 ], [  1, 180.0 ], [  1,   0.0 ], [  1, 180.0 ], [  1,   0.0 ] ]
- band_indices: [ 70 ]
  frequency: 11.4799449685  
  ir_label: None
  characters: [ [  1,   0.0 ], [  1, 180.0 ], [  1, 180.0 ], [  1,   0.0 ], [  1, 180.0 ], [  1,   0.0 ], [  1,   0.0 ], [  1, 180.0 ] ]
- band_indices: [ 71 ]
  frequency: 13.5198723669  
  ir_label: B1g
  characters: [ [  1,   0.0 ], [  1,   0.0 ], [  1,   0.0 ], [  1,   0.0 ], [  1, 180.0 ], [  1, 180.0 ], [  1, 180.0 ], [  1, 180.0 ] ]
- band_indices: [ 72 ]
  frequency: 13.6912842892  
  ir_label: B3u
  characters: [ [  1,   0.0 ], [  1, 180.0 ], [  1, 180.0 ], [  1,   0.0 ], [  1,   0.0 ], [  1, 180.0 ], [  1, 180.0 ], [  1,   0.0 ] ]
